Title="TOUGHREACT V3.30-OMP flowvector.tec: Liq & Gas Fluxes (kg/s/m^2), Pore Velocities (m/s), & Heat Fluxes (J/s/m2)"                                                                                                                                                                                                                                                                                                                                                                                                                                                                                                                                                                                                                                                                                                         
Variables= "X(m)"     "Y(m)"      "Z(m)"     "FluxLiq"   "FluxLiq_X"   "FluxLiq_Y"   "FluxLiq_Z"   "PorVelLiq"  "PorVelLiqX"  "PorVelLiqY"  "PorVelLiqZ"     "FluxGas"   "FluxGas_X"   "FluxGas_Y"   "FluxGas_Z"   "PorVelGas"  "PorVelGasX"  "PorVelGasY"  "PorVelGasZ"    "HeatFlux"  "HeatFlux_X"  "HeatFlux_Y"  "HeatFlux_Z"                                                                                                                                                                                                                                                                                                                                                                                                                                                                                                
Zone T= "5.00000000E-02 sec" I=     9 J=    10 K=    23 F=Point
  1.250000E+02  1.250000E+02 -5.425000E+03  3.488956E-07  0.000000E+00  0.000000E+00  3.488956E-07  1.968903E-09  0.000000E+00  0.000000E+00  1.968903E-09  0.000000E+00  0.000000E+00  0.000000E+00  0.000000E+00  0.000000E+00  0.000000E+00  0.000000E+00  0.000000E+00  3.322430E-01  0.000000E+00  0.000000E+00  3.322430E-01                                                                                                                                                                                                                                                                                                                                                                                                                                                                                              
  3.750000E+02  1.250000E+02 -5.425000E+03  3.488956E-07  0.000000E+00  0.000000E+00  3.488956E-07  1.968903E-09  0.000000E+00  0.000000E+00  1.968903E-09  0.000000E+00  0.000000E+00  0.000000E+00  0.000000E+00  0.000000E+00  0.000000E+00  0.000000E+00  0.000000E+00  3.322430E-01  0.000000E+00  0.000000E+00  3.322430E-01                                                                                                                                                                                                                                                                                                                                                                                                                                                                                              
  6.250000E+02  1.250000E+02 -5.425000E+03  3.488956E-07  0.000000E+00  0.000000E+00  3.488956E-07  1.968903E-09  0.000000E+00  0.000000E+00  1.968903E-09  0.000000E+00  0.000000E+00  0.000000E+00  0.000000E+00  0.000000E+00  0.000000E+00  0.000000E+00  0.000000E+00  3.322430E-01  0.000000E+00  0.000000E+00  3.322430E-01                                                                                                                                                                                                                                                                                                                                                                                                                                                                                              
  7.600000E+02  1.250000E+02 -5.425000E+03  3.488956E-07  0.000000E+00  0.000000E+00  3.488956E-07  1.968903E-09  0.000000E+00  0.000000E+00  1.968903E-09  0.000000E+00  0.000000E+00  0.000000E+00  0.000000E+00  0.000000E+00  0.000000E+00  0.000000E+00  0.000000E+00  3.322430E-01  0.000000E+00  0.000000E+00  3.322430E-01                                                                                                                                                                                                                                                                                                                                                                                                                                                                                              
  7.800000E+02  1.250000E+02 -5.425000E+03  3.488956E-07  0.000000E+00  0.000000E+00  3.488956E-07  1.968903E-09  0.000000E+00  0.000000E+00  1.968903E-09  0.000000E+00  0.000000E+00  0.000000E+00  0.000000E+00  0.000000E+00  0.000000E+00  0.000000E+00  0.000000E+00  3.322430E-01  0.000000E+00  0.000000E+00  3.322430E-01                                                                                                                                                                                                                                                                                                                                                                                                                                                                                              
  8.000000E+02  1.250000E+02 -5.425000E+03  3.488956E-07  0.000000E+00  0.000000E+00  3.488956E-07  1.968903E-09  0.000000E+00  0.000000E+00  1.968903E-09  0.000000E+00  0.000000E+00  0.000000E+00  0.000000E+00  0.000000E+00  0.000000E+00  0.000000E+00  0.000000E+00  3.322430E-01  0.000000E+00  0.000000E+00  3.322430E-01                                                                                                                                                                                                                                                                                                                                                                                                                                                                                              
  9.350000E+02  1.250000E+02 -5.425000E+03  3.488956E-07  0.000000E+00  0.000000E+00  3.488956E-07  1.968903E-09  0.000000E+00  0.000000E+00  1.968903E-09  0.000000E+00  0.000000E+00  0.000000E+00  0.000000E+00  0.000000E+00  0.000000E+00  0.000000E+00  0.000000E+00  3.322430E-01  0.000000E+00  0.000000E+00  3.322430E-01                                                                                                                                                                                                                                                                                                                                                                                                                                                                                              
  1.185000E+03  1.250000E+02 -5.425000E+03  3.488956E-07  0.000000E+00  0.000000E+00  3.488956E-07  1.968903E-09  0.000000E+00  0.000000E+00  1.968903E-09  0.000000E+00  0.000000E+00  0.000000E+00  0.000000E+00  0.000000E+00  0.000000E+00  0.000000E+00  0.000000E+00  3.322430E-01  0.000000E+00  0.000000E+00  3.322430E-01                                                                                                                                                                                                                                                                                                                                                                                                                                                                                              
  1.435000E+03  1.250000E+02 -5.425000E+03  3.488956E-07  0.000000E+00  0.000000E+00  3.488956E-07  1.968903E-09  0.000000E+00  0.000000E+00  1.968903E-09  0.000000E+00  0.000000E+00  0.000000E+00  0.000000E+00  0.000000E+00  0.000000E+00  0.000000E+00  0.000000E+00  3.322430E-01  0.000000E+00  0.000000E+00  3.322430E-01                                                                                                                                                                                                                                                                                                                                                                                                                                                                                              
  1.250000E+02  1.250000E+02 -5.225000E+03  6.677735E-07  0.000000E+00  0.000000E+00  6.677735E-07  3.753756E-09  0.000000E+00  0.000000E+00  3.753756E-09  0.000000E+00  0.000000E+00  0.000000E+00  0.000000E+00  0.000000E+00  0.000000E+00  0.000000E+00  0.000000E+00  6.253117E-01  0.000000E+00  0.000000E+00  6.253117E-01                                                                                                                                                                                                                                                                                                                                                                                                                                                                                              
  3.750000E+02  1.250000E+02 -5.225000E+03  6.677735E-07  0.000000E+00  0.000000E+00  6.677735E-07  3.753756E-09  0.000000E+00  0.000000E+00  3.753756E-09  0.000000E+00  0.000000E+00  0.000000E+00  0.000000E+00  0.000000E+00  0.000000E+00  0.000000E+00  0.000000E+00  6.253117E-01  0.000000E+00  0.000000E+00  6.253117E-01                                                                                                                                                                                                                                                                                                                                                                                                                                                                                              
  6.250000E+02  1.250000E+02 -5.225000E+03  6.677735E-07  0.000000E+00  0.000000E+00  6.677735E-07  3.753756E-09  0.000000E+00  0.000000E+00  3.753756E-09  0.000000E+00  0.000000E+00  0.000000E+00  0.000000E+00  0.000000E+00  0.000000E+00  0.000000E+00  0.000000E+00  6.253117E-01  0.000000E+00  0.000000E+00  6.253117E-01                                                                                                                                                                                                                                                                                                                                                                                                                                                                                              
  7.600000E+02  1.250000E+02 -5.225000E+03  6.677735E-07  0.000000E+00  0.000000E+00  6.677735E-07  3.753756E-09  0.000000E+00  0.000000E+00  3.753756E-09  0.000000E+00  0.000000E+00  0.000000E+00  0.000000E+00  0.000000E+00  0.000000E+00  0.000000E+00  0.000000E+00  6.253117E-01  0.000000E+00  0.000000E+00  6.253117E-01                                                                                                                                                                                                                                                                                                                                                                                                                                                                                              
  7.800000E+02  1.250000E+02 -5.225000E+03  6.677735E-07  0.000000E+00  0.000000E+00  6.677735E-07  3.753756E-09  0.000000E+00  0.000000E+00  3.753756E-09  0.000000E+00  0.000000E+00  0.000000E+00  0.000000E+00  0.000000E+00  0.000000E+00  0.000000E+00  0.000000E+00  6.253117E-01  0.000000E+00  0.000000E+00  6.253117E-01                                                                                                                                                                                                                                                                                                                                                                                                                                                                                              
  8.000000E+02  1.250000E+02 -5.225000E+03  6.677735E-07  0.000000E+00  0.000000E+00  6.677735E-07  3.753756E-09  0.000000E+00  0.000000E+00  3.753756E-09  0.000000E+00  0.000000E+00  0.000000E+00  0.000000E+00  0.000000E+00  0.000000E+00  0.000000E+00  0.000000E+00  6.253117E-01  0.000000E+00  0.000000E+00  6.253117E-01                                                                                                                                                                                                                                                                                                                                                                                                                                                                                              
  9.350000E+02  1.250000E+02 -5.225000E+03  6.677735E-07  0.000000E+00  0.000000E+00  6.677735E-07  3.753756E-09  0.000000E+00  0.000000E+00  3.753756E-09  0.000000E+00  0.000000E+00  0.000000E+00  0.000000E+00  0.000000E+00  0.000000E+00  0.000000E+00  0.000000E+00  6.253117E-01  0.000000E+00  0.000000E+00  6.253117E-01                                                                                                                                                                                                                                                                                                                                                                                                                                                                                              
  1.185000E+03  1.250000E+02 -5.225000E+03  6.677735E-07  0.000000E+00  0.000000E+00  6.677735E-07  3.753756E-09  0.000000E+00  0.000000E+00  3.753756E-09  0.000000E+00  0.000000E+00  0.000000E+00  0.000000E+00  0.000000E+00  0.000000E+00  0.000000E+00  0.000000E+00  6.253117E-01  0.000000E+00  0.000000E+00  6.253117E-01                                                                                                                                                                                                                                                                                                                                                                                                                                                                                              
  1.435000E+03  1.250000E+02 -5.225000E+03  6.677735E-07  0.000000E+00  0.000000E+00  6.677735E-07  3.753756E-09  0.000000E+00  0.000000E+00  3.753756E-09  0.000000E+00  0.000000E+00  0.000000E+00  0.000000E+00  0.000000E+00  0.000000E+00  0.000000E+00  0.000000E+00  6.253117E-01  0.000000E+00  0.000000E+00  6.253117E-01                                                                                                                                                                                                                                                                                                                                                                                                                                                                                              
  1.250000E+02  1.250000E+02 -4.975000E+03  6.042827E-07  0.000000E+00  0.000000E+00  6.042827E-07  3.368334E-09  0.000000E+00  0.000000E+00  3.368334E-09  0.000000E+00  0.000000E+00  0.000000E+00  0.000000E+00  0.000000E+00  0.000000E+00  0.000000E+00  0.000000E+00  5.435531E-01  0.000000E+00  0.000000E+00  5.435531E-01                                                                                                                                                                                                                                                                                                                                                                                                                                                                                              
  3.750000E+02  1.250000E+02 -4.975000E+03  6.042827E-07  0.000000E+00  0.000000E+00  6.042827E-07  3.368334E-09  0.000000E+00  0.000000E+00  3.368334E-09  0.000000E+00  0.000000E+00  0.000000E+00  0.000000E+00  0.000000E+00  0.000000E+00  0.000000E+00  0.000000E+00  5.435531E-01  0.000000E+00  0.000000E+00  5.435531E-01                                                                                                                                                                                                                                                                                                                                                                                                                                                                                              
  6.250000E+02  1.250000E+02 -4.975000E+03  6.042827E-07  0.000000E+00  0.000000E+00  6.042827E-07  3.368334E-09  0.000000E+00  0.000000E+00  3.368334E-09  0.000000E+00  0.000000E+00  0.000000E+00  0.000000E+00  0.000000E+00  0.000000E+00  0.000000E+00  0.000000E+00  5.435531E-01  0.000000E+00  0.000000E+00  5.435531E-01                                                                                                                                                                                                                                                                                                                                                                                                                                                                                              
  7.600000E+02  1.250000E+02 -4.975000E+03  6.042827E-07  0.000000E+00  0.000000E+00  6.042827E-07  3.368334E-09  0.000000E+00  0.000000E+00  3.368334E-09  0.000000E+00  0.000000E+00  0.000000E+00  0.000000E+00  0.000000E+00  0.000000E+00  0.000000E+00  0.000000E+00  5.435531E-01  0.000000E+00  0.000000E+00  5.435531E-01                                                                                                                                                                                                                                                                                                                                                                                                                                                                                              
  7.800000E+02  1.250000E+02 -4.975000E+03  6.042827E-07  0.000000E+00  0.000000E+00  6.042827E-07  3.368334E-09  0.000000E+00  0.000000E+00  3.368334E-09  0.000000E+00  0.000000E+00  0.000000E+00  0.000000E+00  0.000000E+00  0.000000E+00  0.000000E+00  0.000000E+00  5.435531E-01  0.000000E+00  0.000000E+00  5.435531E-01                                                                                                                                                                                                                                                                                                                                                                                                                                                                                              
  8.000000E+02  1.250000E+02 -4.975000E+03  6.042827E-07  0.000000E+00  0.000000E+00  6.042827E-07  3.368334E-09  0.000000E+00  0.000000E+00  3.368334E-09  0.000000E+00  0.000000E+00  0.000000E+00  0.000000E+00  0.000000E+00  0.000000E+00  0.000000E+00  0.000000E+00  5.435531E-01  0.000000E+00  0.000000E+00  5.435531E-01                                                                                                                                                                                                                                                                                                                                                                                                                                                                                              
  9.350000E+02  1.250000E+02 -4.975000E+03  6.042827E-07  0.000000E+00  0.000000E+00  6.042827E-07  3.368334E-09  0.000000E+00  0.000000E+00  3.368334E-09  0.000000E+00  0.000000E+00  0.000000E+00  0.000000E+00  0.000000E+00  0.000000E+00  0.000000E+00  0.000000E+00  5.435531E-01  0.000000E+00  0.000000E+00  5.435531E-01                                                                                                                                                                                                                                                                                                                                                                                                                                                                                              
  1.185000E+03  1.250000E+02 -4.975000E+03  6.042827E-07  0.000000E+00  0.000000E+00  6.042827E-07  3.368334E-09  0.000000E+00  0.000000E+00  3.368334E-09  0.000000E+00  0.000000E+00  0.000000E+00  0.000000E+00  0.000000E+00  0.000000E+00  0.000000E+00  0.000000E+00  5.435531E-01  0.000000E+00  0.000000E+00  5.435531E-01                                                                                                                                                                                                                                                                                                                                                                                                                                                                                              
  1.435000E+03  1.250000E+02 -4.975000E+03  6.042827E-07  0.000000E+00  0.000000E+00  6.042827E-07  3.368334E-09  0.000000E+00  0.000000E+00  3.368334E-09  0.000000E+00  0.000000E+00  0.000000E+00  0.000000E+00  0.000000E+00  0.000000E+00  0.000000E+00  0.000000E+00  5.435531E-01  0.000000E+00  0.000000E+00  5.435531E-01                                                                                                                                                                                                                                                                                                                                                                                                                                                                                              
  1.250000E+02  1.250000E+02 -4.725000E+03  6.443667E-07  0.000000E+00  0.000000E+00  6.443667E-07  3.560640E-09  0.000000E+00  0.000000E+00  3.560640E-09  0.000000E+00  0.000000E+00  0.000000E+00  0.000000E+00  0.000000E+00  0.000000E+00  0.000000E+00  0.000000E+00  5.506182E-01  0.000000E+00  0.000000E+00  5.506182E-01                                                                                                                                                                                                                                                                                                                                                                                                                                                                                              
  3.750000E+02  1.250000E+02 -4.725000E+03  6.443667E-07  0.000000E+00  0.000000E+00  6.443667E-07  3.560640E-09  0.000000E+00  0.000000E+00  3.560640E-09  0.000000E+00  0.000000E+00  0.000000E+00  0.000000E+00  0.000000E+00  0.000000E+00  0.000000E+00  0.000000E+00  5.506182E-01  0.000000E+00  0.000000E+00  5.506182E-01                                                                                                                                                                                                                                                                                                                                                                                                                                                                                              
  6.250000E+02  1.250000E+02 -4.725000E+03  6.443680E-07  1.320389E-19  0.000000E+00  6.443680E-07  3.560647E-09  7.294169E-22  0.000000E+00  3.560647E-09  0.000000E+00  0.000000E+00  0.000000E+00  0.000000E+00  0.000000E+00  0.000000E+00  0.000000E+00  0.000000E+00  5.506193E-01  1.103309E-13  0.000000E+00  5.506193E-01                                                                                                                                                                                                                                                                                                                                                                                                                                                                                              
  7.600000E+02  1.250000E+02 -4.725000E+03  6.444694E-07  2.434466E-19  0.000000E+00  6.444694E-07  3.561205E-09  1.344862E-21  0.000000E+00  3.561205E-09  0.000000E+00  0.000000E+00  0.000000E+00  0.000000E+00  0.000000E+00  0.000000E+00  0.000000E+00  0.000000E+00  5.507040E-01  2.034225E-13  0.000000E+00  5.507040E-01                                                                                                                                                                                                                                                                                                                                                                                                                                                                                              
  7.800000E+02  1.250000E+02 -4.725000E+03  6.444732E-07  0.000000E+00  0.000000E+00  6.444732E-07  3.561226E-09  0.000000E+00  0.000000E+00  3.561226E-09  0.000000E+00  0.000000E+00  0.000000E+00  0.000000E+00  0.000000E+00  0.000000E+00  0.000000E+00  0.000000E+00  5.507072E-01  0.000000E+00  0.000000E+00  5.507072E-01                                                                                                                                                                                                                                                                                                                                                                                                                                                                                              
  8.000000E+02  1.250000E+02 -4.725000E+03  6.444694E-07 -2.434466E-19  0.000000E+00  6.444694E-07  3.561205E-09 -1.344862E-21  0.000000E+00  3.561205E-09  0.000000E+00  0.000000E+00  0.000000E+00  0.000000E+00  0.000000E+00  0.000000E+00  0.000000E+00  0.000000E+00  5.507040E-01 -2.034225E-13  0.000000E+00  5.507040E-01                                                                                                                                                                                                                                                                                                                                                                                                                                                                                              
  9.350000E+02  1.250000E+02 -4.725000E+03  6.443680E-07 -1.320389E-19  0.000000E+00  6.443680E-07  3.560647E-09 -7.294169E-22  0.000000E+00  3.560647E-09  0.000000E+00  0.000000E+00  0.000000E+00  0.000000E+00  0.000000E+00  0.000000E+00  0.000000E+00  0.000000E+00  5.506193E-01 -1.103309E-13  0.000000E+00  5.506193E-01                                                                                                                                                                                                                                                                                                                                                                                                                                                                                              
  1.185000E+03  1.250000E+02 -4.725000E+03  6.443667E-07  0.000000E+00  0.000000E+00  6.443667E-07  3.560640E-09  0.000000E+00  0.000000E+00  3.560640E-09  0.000000E+00  0.000000E+00  0.000000E+00  0.000000E+00  0.000000E+00  0.000000E+00  0.000000E+00  0.000000E+00  5.506182E-01  0.000000E+00  0.000000E+00  5.506182E-01                                                                                                                                                                                                                                                                                                                                                                                                                                                                                              