Title="TOUGHREACT V3.30-OMP flowvector.tec: Liq & Gas Fluxes (kg/s/m^2), Pore Velocities (m/s), & Heat Fluxes (J/s/m2)"                                                                                                                                                                                                                                                                                                                                                                                                                                                                                                                                                                                                                                                                                                         
Variables= "X(m)"     "Y(m)"      "Z(m)"     "FluxLiq"   "FluxLiq_X"   "FluxLiq_Y"   "FluxLiq_Z"   "PorVelLiq"  "PorVelLiqX"  "PorVelLiqY"  "PorVelLiqZ"     "FluxGas"   "FluxGas_X"   "FluxGas_Y"   "FluxGas_Z"   "PorVelGas"  "PorVelGasX"  "PorVelGasY"  "PorVelGasZ"    "HeatFlux"  "HeatFlux_X"  "HeatFlux_Y"  "HeatFlux_Z"                                                                                                                                                                                                                                                                                                                                                                                                                                                                                                
Zone T= "1.00000000E+10 sec" I=     9 J=    10 K=    23 F=Point
  1.250000E+02  1.250000E+02 -5.425000E+03  3.536538E-08 -2.393054E-09  3.586439E-09 -3.510157E-08  2.017966E-10 -1.375438E-11  2.061367E-11 -2.002692E-10  0.000000E+00  0.000000E+00  0.000000E+00  0.000000E+00  0.000000E+00  0.000000E+00  0.000000E+00  0.000000E+00  3.696662E-02 -2.615239E-03  3.919328E-03 -3.666511E-02                                                                                                                                                                                                                                                                                                                                                                                                                                                                                              
  3.750000E+02  1.250000E+02 -5.425000E+03  3.507298E-08 -9.316612E-09  3.331221E-09 -3.364844E-08  2.002259E-10 -5.354795E-11  1.914678E-11 -1.919802E-10  0.000000E+00  0.000000E+00  0.000000E+00  0.000000E+00  0.000000E+00  0.000000E+00  0.000000E+00  0.000000E+00  3.677499E-02 -1.018178E-02  3.640512E-03 -3.514937E-02                                                                                                                                                                                                                                                                                                                                                                                                                                                                                              
  6.250000E+02  1.250000E+02 -5.425000E+03  3.839097E-08 -1.953734E-08  3.293466E-09 -3.288331E-08  2.194682E-10 -1.122908E-10  1.892951E-11 -1.876133E-10  0.000000E+00  0.000000E+00  0.000000E+00  0.000000E+00  0.000000E+00  0.000000E+00  0.000000E+00  0.000000E+00  4.060665E-02 -2.135166E-02  3.599325E-03 -3.435187E-02                                                                                                                                                                                                                                                                                                                                                                                                                                                                                              
  7.600000E+02  1.250000E+02 -5.425000E+03  4.242616E-08 -2.560257E-08  3.619569E-09 -3.363608E-08  2.427193E-10 -1.471492E-10  2.080335E-11 -1.919035E-10  0.000000E+00  0.000000E+00  0.000000E+00  0.000000E+00  0.000000E+00  0.000000E+00  0.000000E+00  0.000000E+00  4.509100E-02 -2.798006E-02  3.955689E-03 -3.513784E-02                                                                                                                                                                                                                                                                                                                                                                                                                                                                                              
  7.800000E+02  1.250000E+02 -5.425000E+03  4.297937E-08 -2.633879E-08  3.671872E-09 -3.376406E-08  2.459038E-10 -1.513799E-10  2.110389E-11 -1.926329E-10  0.000000E+00  0.000000E+00  0.000000E+00  0.000000E+00  0.000000E+00  0.000000E+00  0.000000E+00  0.000000E+00  4.570264E-02 -2.878461E-02  4.012844E-03 -3.527145E-02                                                                                                                                                                                                                                                                                                                                                                                                                                                                                              
  8.000000E+02  1.250000E+02 -5.425000E+03  4.353353E-08 -2.704551E-08  3.728125E-09 -3.390884E-08  2.490917E-10 -1.554397E-10  2.142713E-11 -1.934582E-10  0.000000E+00  0.000000E+00  0.000000E+00  0.000000E+00  0.000000E+00  0.000000E+00  0.000000E+00  0.000000E+00  4.631376E-02 -2.955679E-02  4.074316E-03 -3.542260E-02                                                                                                                                                                                                                                                                                                                                                                                                                                                                                              
  9.350000E+02  1.250000E+02 -5.425000E+03  4.642339E-08 -3.021446E-08  4.134082E-09 -3.500181E-08  2.656928E-10 -1.736457E-10  2.375974E-11 -1.996881E-10  0.000000E+00  0.000000E+00  0.000000E+00  0.000000E+00  0.000000E+00  0.000000E+00  0.000000E+00  0.000000E+00  4.947279E-02 -3.301895E-02  4.517924E-03 -3.656357E-02                                                                                                                                                                                                                                                                                                                                                                                                                                                                                              
  1.185000E+03  1.250000E+02 -5.425000E+03  4.949708E-08 -2.875997E-08  5.396965E-09 -3.992115E-08  2.830936E-10 -1.652787E-10  3.101592E-11 -2.277343E-10  0.000000E+00  0.000000E+00  0.000000E+00  0.000000E+00  0.000000E+00  0.000000E+00  0.000000E+00  0.000000E+00  5.254736E-02 -3.142819E-02  5.897782E-03 -4.169785E-02                                                                                                                                                                                                                                                                                                                                                                                                                                                                                              
  1.435000E+03  1.250000E+02 -5.425000E+03  4.721934E-08 -1.224102E-08  6.290904E-09 -4.516911E-08  2.695198E-10 -7.034496E-11  3.615148E-11 -2.576539E-10  0.000000E+00  0.000000E+00  0.000000E+00  0.000000E+00  0.000000E+00  0.000000E+00  0.000000E+00  0.000000E+00  4.951388E-02 -1.337635E-02  6.874372E-03 -4.717458E-02                                                                                                                                                                                                                                                                                                                                                                                                                                                                                              
  1.250000E+02  1.250000E+02 -5.225000E+03  1.373704E-07 -1.195421E-09  5.065525E-09 -1.372718E-07  7.756920E-10 -6.776514E-12  2.871525E-11 -7.751307E-10  0.000000E+00  0.000000E+00  0.000000E+00  0.000000E+00  0.000000E+00  0.000000E+00  0.000000E+00  0.000000E+00  1.384690E-01 -1.248744E-03  5.291159E-03 -1.383622E-01                                                                                                                                                                                                                                                                                                                                                                                                                                                                                              
  3.750000E+02  1.250000E+02 -5.225000E+03  1.302383E-07 -7.359900E-09  4.452447E-09 -1.299540E-07  7.354898E-10 -4.172127E-11  2.524021E-11 -7.338716E-10  0.000000E+00  0.000000E+00  0.000000E+00  0.000000E+00  0.000000E+00  0.000000E+00  0.000000E+00  0.000000E+00  1.313375E-01 -7.688527E-03  4.651053E-03 -1.310297E-01                                                                                                                                                                                                                                                                                                                                                                                                                                                                                              
  6.250000E+02  1.250000E+02 -5.225000E+03  1.272965E-07 -1.958034E-08  4.100832E-09 -1.257148E-07  7.189673E-10 -1.109945E-10  2.324688E-11 -7.099675E-10  0.000000E+00  0.000000E+00  0.000000E+00  0.000000E+00  0.000000E+00  0.000000E+00  0.000000E+00  0.000000E+00  1.284991E-01 -2.045462E-02  4.283974E-03 -1.267883E-01                                                                                                                                                                                                                                                                                                                                                                                                                                                                                              
  7.600000E+02  1.250000E+02 -5.225000E+03  1.311360E-07 -2.735997E-08  4.483865E-09 -1.281717E-07  7.406967E-10 -1.550933E-10  2.541757E-11 -7.238312E-10  0.000000E+00  0.000000E+00  0.000000E+00  0.000000E+00  0.000000E+00  0.000000E+00  0.000000E+00  0.000000E+00  1.324751E-01 -2.858149E-02  4.684057E-03 -1.292703E-01                                                                                                                                                                                                                                                                                                                                                                                                                                                                                              
  7.800000E+02  1.250000E+02 -5.225000E+03  1.317826E-07 -2.840648E-08  4.547706E-09 -1.286043E-07  7.443552E-10 -1.610246E-10  2.577936E-11 -7.262721E-10  0.000000E+00  0.000000E+00  0.000000E+00  0.000000E+00  0.000000E+00  0.000000E+00  0.000000E+00  0.000000E+00  1.331431E-01 -2.967464E-02  4.750737E-03 -1.297071E-01                                                                                                                                                                                                                                                                                                                                                                                                                                                                                              
  8.000000E+02  1.250000E+02 -5.225000E+03  1.324916E-07 -2.943127E-08  4.618656E-09 -1.290988E-07  7.483672E-10 -1.668312E-10  2.618143E-11 -7.290647E-10  0.000000E+00  0.000000E+00  0.000000E+00  0.000000E+00  0.000000E+00  0.000000E+00  0.000000E+00  0.000000E+00  1.338765E-01 -3.074480E-02  4.824842E-03 -1.302091E-01                                                                                                                                                                                                                                                                                                                                                                                                                                                                                              
  9.350000E+02  1.250000E+02 -5.225000E+03  1.376284E-07 -3.498658E-08  5.145739E-09 -1.330077E-07  7.774029E-10 -1.983104E-10  2.916836E-11 -7.511175E-10  0.000000E+00  0.000000E+00  0.000000E+00  0.000000E+00  0.000000E+00  0.000000E+00  0.000000E+00  0.000000E+00  1.391440E-01 -3.654537E-02  5.375338E-03 -1.341513E-01                                                                                                                                                                                                                                                                                                                                                                                                                                                                                              
  1.185000E+03  1.250000E+02 -5.225000E+03  1.579702E-07 -3.613033E-08  7.146603E-09 -1.536167E-07  8.921022E-10 -2.047794E-10  4.050652E-11 -8.673356E-10  0.000000E+00  0.000000E+00  0.000000E+00  0.000000E+00  0.000000E+00  0.000000E+00  0.000000E+00  0.000000E+00  1.595751E-01 -3.773660E-02  7.464664E-03 -1.548691E-01                                                                                                                                                                                                                                                                                                                                                                                                                                                                                              
  1.435000E+03  1.250000E+02 -5.225000E+03  1.784522E-07 -1.611265E-08  8.467987E-09 -1.775215E-07  1.007400E-09 -9.131912E-11  4.799220E-11 -1.002104E-09  0.000000E+00  0.000000E+00  0.000000E+00  0.000000E+00  0.000000E+00  0.000000E+00  0.000000E+00  0.000000E+00  1.798960E-01 -1.682804E-02  8.843959E-03 -1.788887E-01                                                                                                                                                                                                                                                                                                                                                                                                                                                                                              
  1.250000E+02  1.250000E+02 -4.975000E+03  2.844424E-07  4.635368E-09  1.215682E-08 -2.841446E-07  1.583368E-09  2.592088E-11  6.798124E-11 -1.581696E-09  0.000000E+00  0.000000E+00  0.000000E+00  0.000000E+00  0.000000E+00  0.000000E+00  0.000000E+00  0.000000E+00  2.696531E-01  4.613905E-03  1.210053E-02 -2.693419E-01                                                                                                                                                                                                                                                                                                                                                                                                                                                                                              
  3.750000E+02  1.250000E+02 -4.975000E+03  2.581127E-07  2.058631E-09  9.568948E-09 -2.579271E-07  1.437527E-09  1.151101E-11  5.351370E-11 -1.436485E-09  0.000000E+00  0.000000E+00  0.000000E+00  0.000000E+00  0.000000E+00  0.000000E+00  0.000000E+00  0.000000E+00  2.453599E-01  2.048134E-03  9.526705E-03 -2.451663E-01                                                                                                                                                                                                                                                                                                                                                                                                                                                                                              
  6.250000E+02  1.250000E+02 -4.975000E+03  2.431628E-07 -1.877714E-08  7.403825E-09 -2.423237E-07  1.354698E-09 -1.050070E-10  4.140663E-11 -1.349987E-09  0.000000E+00  0.000000E+00  0.000000E+00  0.000000E+00  0.000000E+00  0.000000E+00  0.000000E+00  0.000000E+00  2.315852E-01 -1.869708E-02  7.372316E-03 -2.307114E-01                                                                                                                                                                                                                                                                                                                                                                                                                                                                                              
  7.600000E+02  1.250000E+02 -4.975000E+03  2.476011E-07 -3.357065E-08  7.965521E-09 -2.451853E-07  1.379562E-09 -1.877355E-10  4.454655E-11 -1.366003E-09  0.000000E+00  0.000000E+00  0.000000E+00  0.000000E+00  0.000000E+00  0.000000E+00  0.000000E+00  0.000000E+00  2.360749E-01 -3.342747E-02  7.931549E-03 -2.335616E-01                                                                                                                                                                                                                                                                                                                                                                                                                                                                                              
  7.800000E+02  1.250000E+02 -4.975000E+03  2.484784E-07 -3.592201E-08  8.071986E-09 -2.457355E-07  1.384491E-09 -2.008841E-10  4.514171E-11 -1.369096E-09  0.000000E+00  0.000000E+00  0.000000E+00  0.000000E+00  0.000000E+00  0.000000E+00  0.000000E+00  0.000000E+00  2.369822E-01 -3.576928E-02  8.037557E-03 -2.341293E-01                                                                                                                                                                                                                                                                                                                                                                                                                                                                                              
  8.000000E+02  1.250000E+02 -4.975000E+03  2.492821E-07 -3.831290E-08  8.202437E-09 -2.461836E-07  1.389137E-09 -2.142511E-10  4.587117E-11 -1.371748E-09  0.000000E+00  0.000000E+00  0.000000E+00  0.000000E+00  0.000000E+00  0.000000E+00  0.000000E+00  0.000000E+00  2.379898E-01 -3.814996E-02  8.167668E-03 -2.347702E-01                                                                                                                                                                                                                                                                                                                                                                                                                                                                                              
  9.350000E+02  1.250000E+02 -4.975000E+03  2.585998E-07 -5.482901E-08  9.255505E-09 -2.525509E-07  1.441231E-09 -3.065778E-10  5.175822E-11 -1.407295E-09  0.000000E+00  0.000000E+00  0.000000E+00  0.000000E+00  0.000000E+00  0.000000E+00  0.000000E+00  0.000000E+00  2.472762E-01 -5.458299E-02  9.216022E-03 -2.410006E-01                                                                                                                                                                                                                                                                                                                                                                                                                                                                                              
  1.185000E+03  1.250000E+02 -4.975000E+03  3.140362E-07 -6.937340E-08  1.535221E-08 -3.058928E-07  1.748929E-09 -3.878472E-10  8.583648E-11 -1.703220E-09  0.000000E+00  0.000000E+00  0.000000E+00  0.000000E+00  0.000000E+00  0.000000E+00  0.000000E+00  0.000000E+00  2.993146E-01 -6.904623E-02  1.528141E-02 -2.908407E-01                                                                                                                                                                                                                                                                                                                                                                                                                                                                                              
  1.435000E+03  1.250000E+02 -4.975000E+03  3.817115E-07 -3.430553E-08  1.851202E-08 -3.797158E-07  2.124884E-09 -1.917749E-10  1.034833E-10 -2.113681E-09  0.000000E+00  0.000000E+00  0.000000E+00  0.000000E+00  0.000000E+00  0.000000E+00  0.000000E+00  0.000000E+00  3.634707E-01 -3.414009E-02  1.842274E-02 -3.613946E-01                                                                                                                                                                                                                                                                                                                                                                                                                                                                                              
  1.250000E+02  1.250000E+02 -4.725000E+03  5.023838E-07  2.429030E-08  3.435263E-08 -5.006189E-07  2.652645E-09  1.331895E-10  1.883977E-10 -2.642592E-09  0.000000E+00  0.000000E+00  0.000000E+00  0.000000E+00  0.000000E+00  0.000000E+00  0.000000E+00  0.000000E+00  2.356938E-01  2.237755E-02  3.164751E-02 -2.324849E-01                                                                                                                                                                                                                                                                                                                                                                                                                                                                                              
  3.750000E+02  1.250000E+02 -4.725000E+03  4.096924E-07  3.369103E-08  2.365361E-08 -4.076191E-07  2.166789E-09  1.847644E-10  1.298355E-10 -2.154989E-09  0.000000E+00  0.000000E+00  0.000000E+00  0.000000E+00  0.000000E+00  0.000000E+00  0.000000E+00  0.000000E+00  1.887883E-01  3.106077E-02  2.184827E-02 -1.849295E-01                                                                                                                                                                                                                                                                                                                                                                                                                                                                                              
  6.250000E+02  1.250000E+02 -4.725000E+03  3.606384E-07 -8.453766E-09  1.431620E-08 -3.602550E-07  1.908944E-09 -4.640258E-11  7.858178E-11 -1.906762E-09  0.000000E+00  0.000000E+00  0.000000E+00  0.000000E+00  0.000000E+00  0.000000E+00  0.000000E+00  0.000000E+00  1.634671E-01 -7.841450E-03  1.324198E-02 -1.627411E-01                                                                                                                                                                                                                                                                                                                                                                                                                                                                                              
  7.600000E+02  1.250000E+02 -4.725000E+03  3.605739E-07 -3.825568E-08  1.486502E-08 -3.582304E-07  1.910297E-09 -2.099411E-10  8.160321E-11 -1.896971E-09  0.000000E+00  0.000000E+00  0.000000E+00  0.000000E+00  0.000000E+00  0.000000E+00  0.000000E+00  0.000000E+00  1.678035E-01 -3.541137E-02  1.375786E-02 -1.634466E-01                                                                                                                                                                                                                                                                                                                                                                                                                                                                                              
  7.800000E+02  1.250000E+02 -4.725000E+03  3.603070E-07 -4.346208E-08  1.501973E-08 -3.573606E-07  1.909414E-09 -2.385487E-10  8.245550E-11 -1.892659E-09  0.000000E+00  0.000000E+00  0.000000E+00  0.000000E+00  0.000000E+00  0.000000E+00  0.000000E+00  0.000000E+00  1.689351E-01 -4.026606E-02  1.390474E-02 -1.634759E-01                                                                                                                                                                                                                                                                                                                                                                                                                                                                                              
  8.000000E+02  1.250000E+02 -4.725000E+03  3.592949E-07 -4.894921E-08  1.526351E-08 -3.556175E-07  1.904974E-09 -2.687260E-10  8.381002E-11 -1.884062E-09  0.000000E+00  0.000000E+00  0.000000E+00  0.000000E+00  0.000000E+00  0.000000E+00  0.000000E+00  0.000000E+00  1.701376E-01 -4.540288E-02  1.415054E-02 -1.633558E-01                                                                                                                                                                                                                                                                                                                                                                                                                                                                                              
  9.350000E+02  1.250000E+02 -4.725000E+03  3.685500E-07 -9.626022E-08  1.739225E-08 -3.553317E-07  1.959238E-09 -5.283129E-10  9.552408E-11 -1.884244E-09  0.000000E+00  0.000000E+00  0.000000E+00  0.000000E+00  0.000000E+00  0.000000E+00  0.000000E+00  0.000000E+00  1.893841E-01 -8.907616E-02  1.613944E-02 -1.663469E-01                                                                                                                                                                                                                                                                                                                                                                                                                                                                                              
  1.185000E+03  1.250000E+02 -4.725000E+03  5.091756E-07 -1.595667E-07  4.045736E-08 -4.818314E-07  2.706163E-09 -8.755241E-10  2.220632E-10 -2.550973E-09  0.000000E+00  0.000000E+00  0.000000E+00  0.000000E+00  0.000000E+00  0.000000E+00  0.000000E+00  0.000000E+00  2.813625E-01 -1.478713E-01  3.739927E-02 -2.364323E-01                                                                                                                                                                                                                                                                                                                                                                                                                                                                                              