Title="TOUGHREACT V3.30-OMP flowvector.tec: Liq & Gas Fluxes (kg/s/m^2), Pore Velocities (m/s), & Heat Fluxes (J/s/m2)"                                                                                                                                                                                                                                                                                                                                                                                                                                                                                                                                                                                                                                                                                                         
Variables= "X(m)"     "Y(m)"      "Z(m)"     "FluxLiq"   "FluxLiq_X"   "FluxLiq_Y"   "FluxLiq_Z"   "PorVelLiq"  "PorVelLiqX"  "PorVelLiqY"  "PorVelLiqZ"     "FluxGas"   "FluxGas_X"   "FluxGas_Y"   "FluxGas_Z"   "PorVelGas"  "PorVelGasX"  "PorVelGasY"  "PorVelGasZ"    "HeatFlux"  "HeatFlux_X"  "HeatFlux_Y"  "HeatFlux_Z"                                                                                                                                                                                                                                                                                                                                                                                                                                                                                                
Zone T= "5.18400000E+05 sec" I=     9 J=    10 K=    23 F=Point
  1.250000E+02  1.250000E+02 -5.425000E+03  4.867736E-07 -6.559415E-16 -6.802933E-16  4.867736E-07  2.855549E-09 -3.867498E-18 -4.011079E-18  2.855549E-09  0.000000E+00  0.000000E+00  0.000000E+00  0.000000E+00  0.000000E+00  0.000000E+00  0.000000E+00  0.000000E+00  5.255649E-01 -7.082138E-10 -7.345062E-10  5.255649E-01                                                                                                                                                                                                                                                                                                                                                                                                                                                                                              
  3.750000E+02  1.250000E+02 -5.425000E+03  4.867736E-07 -1.113240E-16  1.612057E-16  4.867736E-07  2.855549E-09 -6.563775E-19  9.504853E-19  2.855549E-09  0.000000E+00  0.000000E+00  0.000000E+00  0.000000E+00  0.000000E+00  0.000000E+00  0.000000E+00  0.000000E+00  5.255649E-01 -1.201954E-10  1.740523E-10  5.255649E-01                                                                                                                                                                                                                                                                                                                                                                                                                                                                                              
  6.250000E+02  1.250000E+02 -5.425000E+03  4.867736E-07 -1.597643E-15 -6.459904E-16  4.867736E-07  2.855549E-09 -9.419865E-18 -3.808826E-18  2.855549E-09  0.000000E+00  0.000000E+00  0.000000E+00  0.000000E+00  0.000000E+00  0.000000E+00  0.000000E+00  0.000000E+00  5.255649E-01 -1.724960E-09 -6.974697E-10  5.255649E-01                                                                                                                                                                                                                                                                                                                                                                                                                                                                                              
  7.600000E+02  1.250000E+02 -5.425000E+03  4.867736E-07  7.820585E-16  1.327872E-15  4.867736E-07  2.855549E-09  4.611097E-18  7.829270E-18  2.855549E-09  0.000000E+00  0.000000E+00  0.000000E+00  0.000000E+00  0.000000E+00  0.000000E+00  0.000000E+00  0.000000E+00  5.255649E-01  8.443811E-10  1.433691E-09  5.255649E-01                                                                                                                                                                                                                                                                                                                                                                                                                                                                                              
  7.800000E+02  1.250000E+02 -5.425000E+03  4.867736E-07  4.041845E-15  7.356975E-16  4.867736E-07  2.855549E-09  2.383113E-17  4.337748E-18  2.855549E-09  0.000000E+00  0.000000E+00  0.000000E+00  0.000000E+00  0.000000E+00  0.000000E+00  0.000000E+00  0.000000E+00  5.255649E-01  4.363942E-09  7.943257E-10  5.255649E-01                                                                                                                                                                                                                                                                                                                                                                                                                                                                                              
  8.000000E+02  1.250000E+02 -5.425000E+03  4.867736E-07  9.527655E-16  8.152748E-16  4.867736E-07  2.855549E-09  5.617603E-18  4.806944E-18  2.855549E-09  0.000000E+00  0.000000E+00  0.000000E+00  0.000000E+00  0.000000E+00  0.000000E+00  0.000000E+00  0.000000E+00  5.255649E-01  1.028692E-09  8.802445E-10  5.255649E-01                                                                                                                                                                                                                                                                                                                                                                                                                                                                                              
  9.350000E+02  1.250000E+02 -5.425000E+03  4.867736E-07  6.307065E-16  2.687007E-16  4.867736E-07  2.855549E-09  3.718710E-18  1.584287E-18  2.855549E-09  0.000000E+00  0.000000E+00  0.000000E+00  0.000000E+00  0.000000E+00  0.000000E+00  0.000000E+00  0.000000E+00  5.255649E-01  6.809678E-10  2.901136E-10  5.255649E-01                                                                                                                                                                                                                                                                                                                                                                                                                                                                                              
  1.185000E+03  1.250000E+02 -5.425000E+03  4.867736E-07  1.880821E-16 -6.934527E-16  4.867736E-07  2.855549E-09  1.108951E-18 -4.088668E-18  2.855549E-09  0.000000E+00  0.000000E+00  0.000000E+00  0.000000E+00  0.000000E+00  0.000000E+00  0.000000E+00  0.000000E+00  5.255649E-01  2.030704E-10 -7.487143E-10  5.255649E-01                                                                                                                                                                                                                                                                                                                                                                                                                                                                                              
  1.435000E+03  1.250000E+02 -5.425000E+03  4.867736E-07 -6.073852E-16  4.372382E-16  4.867736E-07  2.855549E-09 -3.581205E-18  2.578001E-18  2.855549E-09  0.000000E+00  0.000000E+00  0.000000E+00  0.000000E+00  0.000000E+00  0.000000E+00  0.000000E+00  0.000000E+00  5.255649E-01 -6.557880E-10  4.720820E-10  5.255649E-01                                                                                                                                                                                                                                                                                                                                                                                                                                                                                              
  1.250000E+02  1.250000E+02 -5.225000E+03  9.414945E-07  8.927378E-17  1.627666E-16  9.414945E-07  5.493425E-09  5.210629E-19  9.500175E-19  5.493425E-09  0.000000E+00  0.000000E+00  0.000000E+00  0.000000E+00  0.000000E+00  0.000000E+00  0.000000E+00  0.000000E+00  9.987153E-01  9.289198E-11  1.693634E-10  9.987153E-01                                                                                                                                                                                                                                                                                                                                                                                                                                                                                              
  3.750000E+02  1.250000E+02 -5.225000E+03  9.414945E-07  9.976685E-17 -7.219154E-18  9.414945E-07  5.493425E-09  5.823077E-19 -4.213593E-20  5.493425E-09  0.000000E+00  0.000000E+00  0.000000E+00  0.000000E+00  0.000000E+00  0.000000E+00  0.000000E+00  0.000000E+00  9.987153E-01  1.038103E-10 -7.511742E-12  9.987153E-01                                                                                                                                                                                                                                                                                                                                                                                                                                                                                              
  6.250000E+02  1.250000E+02 -5.225000E+03  9.414945E-07  2.929356E-17 -1.029685E-17  9.414945E-07  5.493425E-09  1.709773E-19 -6.009946E-20  5.493425E-09  0.000000E+00  0.000000E+00  0.000000E+00  0.000000E+00  0.000000E+00  0.000000E+00  0.000000E+00  0.000000E+00  9.987153E-01  3.048080E-11 -1.071417E-11  9.987153E-01                                                                                                                                                                                                                                                                                                                                                                                                                                                                                              
  7.600000E+02  1.250000E+02 -5.225000E+03  9.414945E-07  1.004076E-15  1.018427E-16  9.414945E-07  5.493425E-09  5.860473E-18  5.944240E-19  5.493425E-09  0.000000E+00  0.000000E+00  0.000000E+00  0.000000E+00  0.000000E+00  0.000000E+00  0.000000E+00  0.000000E+00  9.987153E-01  1.044770E-09  1.059704E-10  9.987153E-01                                                                                                                                                                                                                                                                                                                                                                                                                                                                                              
  7.800000E+02  1.250000E+02 -5.225000E+03  9.414945E-07  6.773767E-16  1.176340E-17  9.414945E-07  5.493425E-09  3.953634E-18  6.865926E-20  5.493425E-09  0.000000E+00  0.000000E+00  0.000000E+00  0.000000E+00  0.000000E+00  0.000000E+00  0.000000E+00  0.000000E+00  9.987153E-01  7.048303E-10  1.224016E-11  9.987153E-01                                                                                                                                                                                                                                                                                                                                                                                                                                                                                              
  8.000000E+02  1.250000E+02 -5.225000E+03  9.414945E-07 -2.884860E-16  1.572929E-17  9.414945E-07  5.493425E-09 -1.683802E-18  9.180690E-20  5.493425E-09  0.000000E+00  0.000000E+00  0.000000E+00  0.000000E+00  0.000000E+00  0.000000E+00  0.000000E+00  0.000000E+00  9.987153E-01 -3.001781E-10  1.636679E-11  9.987153E-01                                                                                                                                                                                                                                                                                                                                                                                                                                                                                              
  9.350000E+02  1.250000E+02 -5.225000E+03  9.414945E-07 -1.196104E-16 -1.114786E-16  9.414945E-07  5.493425E-09 -6.981285E-19 -6.506656E-19  5.493425E-09  0.000000E+00  0.000000E+00  0.000000E+00  0.000000E+00  0.000000E+00  0.000000E+00  0.000000E+00  0.000000E+00  9.987153E-01 -1.244582E-10 -1.159968E-10  9.987153E-01                                                                                                                                                                                                                                                                                                                                                                                                                                                                                              
  1.185000E+03  1.250000E+02 -5.225000E+03  9.414945E-07 -7.428809E-17  1.560535E-17  9.414945E-07  5.493425E-09 -4.335962E-19  9.108353E-20  5.493425E-09  0.000000E+00  0.000000E+00  0.000000E+00  0.000000E+00  0.000000E+00  0.000000E+00  0.000000E+00  0.000000E+00  9.987153E-01 -7.729894E-11  1.623783E-11  9.987153E-01                                                                                                                                                                                                                                                                                                                                                                                                                                                                                              
  1.435000E+03  1.250000E+02 -5.225000E+03  9.414945E-07  6.473485E-17 -1.665879E-17  9.414945E-07  5.493425E-09  3.778369E-19 -9.723212E-20  5.493425E-09  0.000000E+00  0.000000E+00  0.000000E+00  0.000000E+00  0.000000E+00  0.000000E+00  0.000000E+00  0.000000E+00  9.987153E-01  6.735851E-11 -1.733396E-11  9.987153E-01                                                                                                                                                                                                                                                                                                                                                                                                                                                                                              
  1.250000E+02  1.250000E+02 -4.975000E+03  8.708986E-07  7.704655E-16 -2.777146E-16  8.708986E-07  5.023473E-09  4.442445E-18 -1.601281E-18  5.023473E-09  0.000000E+00  0.000000E+00  0.000000E+00  0.000000E+00  0.000000E+00  0.000000E+00  0.000000E+00  0.000000E+00  8.859078E-01  7.641335E-10 -2.754322E-10  8.859078E-01                                                                                                                                                                                                                                                                                                                                                                                                                                                                                              
  3.750000E+02  1.250000E+02 -4.975000E+03  8.708987E-07  2.895135E-15 -4.845689E-16  8.708987E-07  5.023474E-09  1.669313E-17 -2.793987E-18  5.023474E-09  0.000000E+00  0.000000E+00  0.000000E+00  0.000000E+00  0.000000E+00  0.000000E+00  0.000000E+00  0.000000E+00  8.859079E-01  2.871342E-09 -4.805865E-10  8.859079E-01                                                                                                                                                                                                                                                                                                                                                                                                                                                                                              
  6.250000E+02  1.250000E+02 -4.975000E+03  8.708991E-07  5.673832E-15 -1.701073E-14  8.708991E-07  5.023476E-09  3.271488E-17 -9.808259E-17  5.023476E-09  0.000000E+00  0.000000E+00  0.000000E+00  0.000000E+00  0.000000E+00  0.000000E+00  0.000000E+00  0.000000E+00  8.859083E-01  5.627202E-09 -1.687093E-08  8.859083E-01                                                                                                                                                                                                                                                                                                                                                                                                                                                                                              
  7.600000E+02  1.250000E+02 -4.975000E+03  8.708994E-07  5.943123E-15 -2.370925E-15  8.708994E-07  5.023478E-09  3.426759E-17 -1.367057E-17  5.023478E-09  0.000000E+00  0.000000E+00  0.000000E+00  0.000000E+00  0.000000E+00  0.000000E+00  0.000000E+00  0.000000E+00  8.859086E-01  5.894280E-09 -2.351439E-09  8.859086E-01                                                                                                                                                                                                                                                                                                                                                                                                                                                                                              
  7.800000E+02  1.250000E+02 -4.975000E+03  8.708995E-07  6.057237E-16 -1.280053E-15  8.708995E-07  5.023478E-09  3.492556E-18 -7.380689E-18  5.023478E-09  0.000000E+00  0.000000E+00  0.000000E+00  0.000000E+00  0.000000E+00  0.000000E+00  0.000000E+00  0.000000E+00  8.859086E-01  6.007456E-10 -1.269533E-09  8.859086E-01                                                                                                                                                                                                                                                                                                                                                                                                                                                                                              
  8.000000E+02  1.250000E+02 -4.975000E+03  8.708994E-07 -3.836269E-15 -7.183544E-16  8.708994E-07  5.023478E-09 -2.211963E-17 -4.141976E-18  5.023478E-09  0.000000E+00  0.000000E+00  0.000000E+00  0.000000E+00  0.000000E+00  0.000000E+00  0.000000E+00  0.000000E+00  8.859086E-01 -3.804741E-09 -7.124506E-10  8.859086E-01                                                                                                                                                                                                                                                                                                                                                                                                                                                                                              
  9.350000E+02  1.250000E+02 -4.975000E+03  8.708992E-07 -3.804099E-15 -3.213116E-16  8.708992E-07  5.023477E-09 -2.193414E-17 -1.852658E-18  5.023477E-09  0.000000E+00  0.000000E+00  0.000000E+00  0.000000E+00  0.000000E+00  0.000000E+00  0.000000E+00  0.000000E+00  8.859084E-01 -3.772836E-09 -3.186709E-10  8.859084E-01                                                                                                                                                                                                                                                                                                                                                                                                                                                                                              
  1.185000E+03  1.250000E+02 -4.975000E+03  8.708989E-07 -2.485623E-15 -4.006457E-17  8.708989E-07  5.023475E-09 -1.433191E-17 -2.310092E-19  5.023475E-09  0.000000E+00  0.000000E+00  0.000000E+00  0.000000E+00  0.000000E+00  0.000000E+00  0.000000E+00  0.000000E+00  8.859081E-01 -2.465196E-09 -3.973530E-11  8.859081E-01                                                                                                                                                                                                                                                                                                                                                                                                                                                                                              
  1.435000E+03  1.250000E+02 -4.975000E+03  8.708988E-07 -7.295555E-16 -1.377754E-16  8.708988E-07  5.023474E-09 -4.206561E-18 -7.944024E-19  5.023474E-09  0.000000E+00  0.000000E+00  0.000000E+00  0.000000E+00  0.000000E+00  0.000000E+00  0.000000E+00  0.000000E+00  8.859080E-01 -7.235597E-10 -1.366431E-10  8.859080E-01                                                                                                                                                                                                                                                                                                                                                                                                                                                                                              
  1.250000E+02  1.250000E+02 -4.725000E+03  1.940383E-06  1.555256E-13 -4.420487E-14  1.940383E-06  1.103851E-08  8.863176E-16 -2.519171E-16  1.103851E-08  0.000000E+00  0.000000E+00  0.000000E+00  0.000000E+00  0.000000E+00  0.000000E+00  0.000000E+00  0.000000E+00  1.850452E+00  1.466983E-07 -4.169591E-08  1.850452E+00                                                                                                                                                                                                                                                                                                                                                                                                                                                                                              
  3.750000E+02  1.250000E+02 -4.725000E+03  1.940395E-06  4.867976E-13 -9.781280E-14  1.940395E-06  1.103858E-08  2.774188E-15 -5.574208E-16  1.103858E-08  0.000000E+00  0.000000E+00  0.000000E+00  0.000000E+00  0.000000E+00  0.000000E+00  0.000000E+00  0.000000E+00  1.850463E+00  4.591681E-07 -9.226118E-08  1.850463E+00                                                                                                                                                                                                                                                                                                                                                                                                                                                                                              
  6.250000E+02  1.250000E+02 -4.725000E+03  1.940423E-06  9.872224E-13 -4.007050E-12  1.940423E-06  1.103874E-08  5.626035E-15 -2.283559E-14  1.103874E-08  0.000000E+00  0.000000E+00  0.000000E+00  0.000000E+00  0.000000E+00  0.000000E+00  0.000000E+00  0.000000E+00  1.850490E+00  9.311900E-07 -3.779619E-06  1.850490E+00                                                                                                                                                                                                                                                                                                                                                                                                                                                                                              
  7.600000E+02  1.250000E+02 -4.725000E+03  1.940457E-06  9.588901E-13 -4.245123E-13  1.940457E-06  1.103894E-08  5.464574E-15 -2.419233E-15  1.103894E-08  0.000000E+00  0.000000E+00  0.000000E+00  0.000000E+00  0.000000E+00  0.000000E+00  0.000000E+00  0.000000E+00  1.850522E+00  9.044658E-07 -4.004180E-07  1.850522E+00                                                                                                                                                                                                                                                                                                                                                                                                                                                                                              
  7.800000E+02  1.250000E+02 -4.725000E+03  1.940460E-06  2.531756E-13 -2.128845E-13  1.940460E-06  1.103895E-08  1.442810E-15 -1.213197E-15  1.103895E-08  0.000000E+00  0.000000E+00  0.000000E+00  0.000000E+00  0.000000E+00  0.000000E+00  0.000000E+00  0.000000E+00  1.850525E+00  2.388059E-07 -2.008017E-07  1.850525E+00                                                                                                                                                                                                                                                                                                                                                                                                                                                                                              
  8.000000E+02  1.250000E+02 -4.725000E+03  1.940460E-06 -4.433476E-13 -1.470614E-13  1.940460E-06  1.103895E-08 -2.526573E-15 -8.380813E-16  1.103895E-08  0.000000E+00  0.000000E+00  0.000000E+00  0.000000E+00  0.000000E+00  0.000000E+00  0.000000E+00  0.000000E+00  1.850525E+00 -4.181842E-07 -1.387145E-07  1.850525E+00                                                                                                                                                                                                                                                                                                                                                                                                                                                                                              
  9.350000E+02  1.250000E+02 -4.725000E+03  1.940442E-06 -6.600395E-13 -6.424695E-14  1.940442E-06  1.103885E-08 -3.761468E-15 -3.661339E-16  1.103885E-08  0.000000E+00  0.000000E+00  0.000000E+00  0.000000E+00  0.000000E+00  0.000000E+00  0.000000E+00  0.000000E+00  1.850508E+00 -6.225773E-07 -6.060044E-08  1.850508E+00                                                                                                                                                                                                                                                                                                                                                                                                                                                                                              
  1.185000E+03  1.250000E+02 -4.725000E+03  1.940423E-06 -3.955985E-13 -2.958580E-14  1.940423E-06  1.103874E-08 -2.254458E-15 -1.686051E-16  1.103874E-08  0.000000E+00  0.000000E+00  0.000000E+00  0.000000E+00  0.000000E+00  0.000000E+00  0.000000E+00  0.000000E+00  1.850490E+00 -3.731453E-07 -2.790658E-08  1.850490E+00                                                                                                                                                                                                                                                                                                                                                                                                                                                                                              