Title="TOUGHREACT V3.30-OMP flowvector.tec: Liq & Gas Fluxes (kg/s/m^2), Pore Velocities (m/s), & Heat Fluxes (J/s/m2)"                                                                                                                                                                                                                                                                                                                                                                                                                                                                                                                                                                                                                                                                                                         
Variables= "X(m)"     "Y(m)"      "Z(m)"     "FluxLiq"   "FluxLiq_X"   "FluxLiq_Y"   "FluxLiq_Z"   "PorVelLiq"  "PorVelLiqX"  "PorVelLiqY"  "PorVelLiqZ"     "FluxGas"   "FluxGas_X"   "FluxGas_Y"   "FluxGas_Z"   "PorVelGas"  "PorVelGasX"  "PorVelGasY"  "PorVelGasZ"    "HeatFlux"  "HeatFlux_X"  "HeatFlux_Y"  "HeatFlux_Z"                                                                                                                                                                                                                                                                                                                                                                                                                                                                                                
Zone T= "3.15569000E+08 sec" I=     9 J=    10 K=    23 F=Point
  1.250000E+02  1.250000E+02 -5.425000E+03  3.102081E-07  7.518396E-09  5.166260E-09 -3.100739E-07  1.812530E-09  4.422672E-11  3.039034E-11 -1.811736E-09  0.000000E+00  0.000000E+00  0.000000E+00  0.000000E+00  0.000000E+00  0.000000E+00  0.000000E+00  0.000000E+00  3.229884E-01  8.122463E-03  5.581345E-03 -3.228380E-01                                                                                                                                                                                                                                                                                                                                                                                                                                                                                              
  3.750000E+02  1.250000E+02 -5.425000E+03  3.052909E-07  1.352175E-08  7.502022E-09 -3.048990E-07  1.783876E-09  7.954199E-11  4.413132E-11 -1.781555E-09  0.000000E+00  0.000000E+00  0.000000E+00  0.000000E+00  0.000000E+00  0.000000E+00  0.000000E+00  0.000000E+00  3.178880E-01  1.460814E-02  8.104753E-03 -3.174487E-01                                                                                                                                                                                                                                                                                                                                                                                                                                                                                              
  6.250000E+02  1.250000E+02 -5.425000E+03  2.980834E-07 -2.596342E-09  1.003541E-08 -2.979031E-07  1.741799E-09 -1.527339E-11  5.903524E-11 -1.740731E-09  0.000000E+00  0.000000E+00  0.000000E+00  0.000000E+00  0.000000E+00  0.000000E+00  0.000000E+00  0.000000E+00  3.103661E-01 -2.804937E-03  1.084166E-02 -3.101640E-01                                                                                                                                                                                                                                                                                                                                                                                                                                                                                              
  7.600000E+02  1.250000E+02 -5.425000E+03  3.014706E-07 -1.799962E-08  8.748634E-09 -3.008056E-07  1.761597E-09 -1.058845E-10  5.146486E-11 -1.757659E-09  0.000000E+00  0.000000E+00  0.000000E+00  0.000000E+00  0.000000E+00  0.000000E+00  0.000000E+00  0.000000E+00  3.139320E-01 -1.944575E-02  9.451519E-03 -3.131866E-01                                                                                                                                                                                                                                                                                                                                                                                                                                                                                              
  7.800000E+02  1.250000E+02 -5.425000E+03  3.020359E-07 -1.953922E-08  8.538376E-09 -3.012823E-07  1.764902E-09 -1.149411E-10  5.022789E-11 -1.760439E-09  0.000000E+00  0.000000E+00  0.000000E+00  0.000000E+00  0.000000E+00  0.000000E+00  0.000000E+00  0.000000E+00  3.145278E-01 -2.110905E-02  9.224371E-03 -3.136831E-01                                                                                                                                                                                                                                                                                                                                                                                                                                                                                              
  8.000000E+02  1.250000E+02 -5.425000E+03  3.026408E-07 -2.095164E-08  8.310450E-09 -3.018003E-07  1.768438E-09 -1.232487E-10  4.888698E-11 -1.763460E-09  0.000000E+00  0.000000E+00  0.000000E+00  0.000000E+00  0.000000E+00  0.000000E+00  0.000000E+00  0.000000E+00  3.151646E-01 -2.263498E-02  8.978135E-03 -3.142225E-01                                                                                                                                                                                                                                                                                                                                                                                                                                                                                              
  9.350000E+02  1.250000E+02 -5.425000E+03  3.065525E-07 -2.404841E-08  6.667062E-09 -3.055351E-07  1.791266E-09 -1.414619E-10  3.921894E-11 -1.785240E-09  0.000000E+00  0.000000E+00  0.000000E+00  0.000000E+00  0.000000E+00  0.000000E+00  0.000000E+00  0.000000E+00  3.192523E-01 -2.598065E-02  7.202727E-03 -3.181119E-01                                                                                                                                                                                                                                                                                                                                                                                                                                                                                              
  1.185000E+03  1.250000E+02 -5.425000E+03  3.119092E-07 -2.104851E-08  3.594234E-09 -3.111774E-07  1.822456E-09 -1.238124E-10  2.114228E-11 -1.818123E-09  0.000000E+00  0.000000E+00  0.000000E+00  0.000000E+00  0.000000E+00  0.000000E+00  0.000000E+00  0.000000E+00  3.248090E-01 -2.273979E-02  3.883032E-03 -3.239887E-01                                                                                                                                                                                                                                                                                                                                                                                                                                                                                              
  1.435000E+03  1.250000E+02 -5.425000E+03  3.135692E-07 -7.812433E-09  2.064263E-09 -3.134650E-07  1.832058E-09 -4.595397E-11  1.214230E-11 -1.831441E-09  0.000000E+00  0.000000E+00  0.000000E+00  0.000000E+00  0.000000E+00  0.000000E+00  0.000000E+00  0.000000E+00  3.264885E-01 -8.440191E-03  2.230135E-03 -3.263718E-01                                                                                                                                                                                                                                                                                                                                                                                                                                                                                              
  1.250000E+02  1.250000E+02 -5.225000E+03  1.166233E-06  1.152868E-08  6.827723E-09 -1.166156E-06  6.740825E-09  6.700825E-11  3.968479E-11 -6.740375E-09  0.000000E+00  0.000000E+00  0.000000E+00  0.000000E+00  0.000000E+00  0.000000E+00  0.000000E+00  0.000000E+00  1.173012E+00  1.200325E-02  7.108783E-03 -1.172929E+00                                                                                                                                                                                                                                                                                                                                                                                                                                                                                              
  3.750000E+02  1.250000E+02 -5.225000E+03  1.146475E-06  2.303592E-08  1.164502E-08 -1.146184E-06  6.627046E-09  1.338941E-10  6.768670E-11 -6.625348E-09  0.000000E+00  0.000000E+00  0.000000E+00  0.000000E+00  0.000000E+00  0.000000E+00  0.000000E+00  0.000000E+00  1.153150E+00  2.398413E-02  1.212434E-02 -1.152837E+00                                                                                                                                                                                                                                                                                                                                                                                                                                                                                              
  6.250000E+02  1.250000E+02 -5.225000E+03  1.112594E-06 -1.241901E-09  1.836303E-08 -1.112442E-06  6.431898E-09 -7.219443E-12  1.067389E-10 -6.431009E-09  0.000000E+00  0.000000E+00  0.000000E+00  0.000000E+00  0.000000E+00  0.000000E+00  0.000000E+00  0.000000E+00  1.119146E+00 -1.293008E-03  1.911880E-02 -1.118982E+00                                                                                                                                                                                                                                                                                                                                                                                                                                                                                              
  7.600000E+02  1.250000E+02 -5.225000E+03  1.126190E-06 -2.675232E-08  1.537559E-08 -1.125768E-06  6.510207E-09 -1.554993E-10  8.937193E-11 -6.507736E-09  0.000000E+00  0.000000E+00  0.000000E+00  0.000000E+00  0.000000E+00  0.000000E+00  0.000000E+00  0.000000E+00  1.132816E+00 -2.785343E-02  1.600844E-02 -1.132360E+00                                                                                                                                                                                                                                                                                                                                                                                                                                                                                              
  7.800000E+02  1.250000E+02 -5.225000E+03  1.128449E-06 -2.914589E-08  1.488542E-08 -1.127974E-06  6.523214E-09 -1.694114E-10  8.652250E-11 -6.520440E-09  0.000000E+00  0.000000E+00  0.000000E+00  0.000000E+00  0.000000E+00  0.000000E+00  0.000000E+00  0.000000E+00  1.135087E+00 -3.034554E-02  1.549810E-02 -1.134575E+00                                                                                                                                                                                                                                                                                                                                                                                                                                                                                              
  8.000000E+02  1.250000E+02 -5.225000E+03  1.130909E-06 -3.129936E-08  1.435302E-08 -1.130385E-06  6.537384E-09 -1.819261E-10  8.342758E-11 -6.534320E-09  0.000000E+00  0.000000E+00  0.000000E+00  0.000000E+00  0.000000E+00  0.000000E+00  0.000000E+00  0.000000E+00  1.137561E+00 -3.258770E-02  1.494379E-02 -1.136996E+00                                                                                                                                                                                                                                                                                                                                                                                                                                                                                              
  9.350000E+02  1.250000E+02 -5.225000E+03  1.148309E-06 -3.366517E-08  1.051521E-08 -1.147767E-06  6.637555E-09 -1.956705E-10  6.111859E-11 -6.634389E-09  0.000000E+00  0.000000E+00  0.000000E+00  0.000000E+00  0.000000E+00  0.000000E+00  0.000000E+00  0.000000E+00  1.155027E+00 -3.505106E-02  1.094805E-02 -1.154443E+00                                                                                                                                                                                                                                                                                                                                                                                                                                                                                              
  1.185000E+03  1.250000E+02 -5.225000E+03  1.168755E-06 -2.700462E-08  4.842805E-09 -1.168433E-06  6.755220E-09 -1.569527E-10  2.814689E-11 -6.753338E-09  0.000000E+00  0.000000E+00  0.000000E+00  0.000000E+00  0.000000E+00  0.000000E+00  0.000000E+00  0.000000E+00  1.175598E+00 -2.811645E-02  5.042185E-03 -1.175251E+00                                                                                                                                                                                                                                                                                                                                                                                                                                                                                              
  1.435000E+03  1.250000E+02 -5.225000E+03  1.175560E-06 -9.496095E-09  2.444374E-09 -1.175520E-06  6.794335E-09 -5.519092E-11  1.420658E-11 -6.794096E-09  0.000000E+00  0.000000E+00  0.000000E+00  0.000000E+00  0.000000E+00  0.000000E+00  0.000000E+00  0.000000E+00  1.182450E+00 -9.887091E-03  2.545020E-03 -1.182406E+00                                                                                                                                                                                                                                                                                                                                                                                                                                                                                              
  1.250000E+02  1.250000E+02 -4.975000E+03  2.317646E-06  2.610478E-08  1.236345E-08 -2.317466E-06  1.319899E-08  1.493311E-10  7.072421E-11 -1.319796E-08  0.000000E+00  0.000000E+00  0.000000E+00  0.000000E+00  0.000000E+00  0.000000E+00  0.000000E+00  0.000000E+00  2.231944E+00  2.592211E-02  1.227693E-02 -2.231760E+00                                                                                                                                                                                                                                                                                                                                                                                                                                                                                              
  3.750000E+02  1.250000E+02 -4.975000E+03  2.286377E-06  6.421540E-08  3.012575E-08 -2.285276E-06  1.302195E-08  3.673580E-10  1.723458E-10 -1.301562E-08  0.000000E+00  0.000000E+00  0.000000E+00  0.000000E+00  0.000000E+00  0.000000E+00  0.000000E+00  0.000000E+00  2.201651E+00  6.376558E-02  2.991458E-02 -2.200524E+00                                                                                                                                                                                                                                                                                                                                                                                                                                                                                              
  6.250000E+02  1.250000E+02 -4.975000E+03  2.180543E-06  6.283519E-09  6.693093E-08 -2.179506E-06  1.242257E-08  3.593743E-11  3.829507E-10 -1.241661E-08  0.000000E+00  0.000000E+00  0.000000E+00  0.000000E+00  0.000000E+00  0.000000E+00  0.000000E+00  0.000000E+00  2.099247E+00  6.239701E-03  6.646087E-02 -2.098185E+00                                                                                                                                                                                                                                                                                                                                                                                                                                                                                              
  7.600000E+02  1.250000E+02 -4.975000E+03  2.216622E-06 -6.721021E-08  5.251269E-08 -2.214980E-06  1.262676E-08 -3.845211E-10  3.004393E-10 -1.261732E-08  0.000000E+00  0.000000E+00  0.000000E+00  0.000000E+00  0.000000E+00  0.000000E+00  0.000000E+00  0.000000E+00  2.133947E+00 -6.673865E-02  5.214422E-02 -2.132265E+00                                                                                                                                                                                                                                                                                                                                                                                                                                                                                              
  7.800000E+02  1.250000E+02 -4.975000E+03  2.223427E-06 -7.392073E-08  5.009549E-08 -2.221633E-06  1.266527E-08 -4.229088E-10  2.866074E-10 -1.265497E-08  0.000000E+00  0.000000E+00  0.000000E+00  0.000000E+00  0.000000E+00  0.000000E+00  0.000000E+00  0.000000E+00  2.140511E+00 -7.340220E-02  4.974404E-02 -2.138674E+00                                                                                                                                                                                                                                                                                                                                                                                                                                                                                              
  8.000000E+02  1.250000E+02 -4.975000E+03  2.232051E-06 -7.968817E-08  4.742629E-08 -2.230124E-06  1.271452E-08 -4.558894E-10  2.713337E-10 -1.270345E-08  0.000000E+00  0.000000E+00  0.000000E+00  0.000000E+00  0.000000E+00  0.000000E+00  0.000000E+00  0.000000E+00  2.149398E+00 -7.912957E-02  4.709365E-02 -2.147425E+00                                                                                                                                                                                                                                                                                                                                                                                                                                                                                              
  9.350000E+02  1.250000E+02 -4.975000E+03  2.285668E-06 -7.329935E-08  2.793481E-08 -2.284321E-06  1.301783E-08 -4.193114E-10  1.598084E-10 -1.301009E-08  0.000000E+00  0.000000E+00  0.000000E+00  0.000000E+00  0.000000E+00  0.000000E+00  0.000000E+00  0.000000E+00  2.201061E+00 -7.278631E-02  2.773910E-02 -2.199682E+00                                                                                                                                                                                                                                                                                                                                                                                                                                                                                              
  1.185000E+03  1.250000E+02 -4.975000E+03  2.314304E-06 -4.621507E-08  9.202473E-09 -2.313824E-06  1.317984E-08 -2.643582E-10  5.264012E-11 -1.317708E-08  0.000000E+00  0.000000E+00  0.000000E+00  0.000000E+00  0.000000E+00  0.000000E+00  0.000000E+00  0.000000E+00  2.228877E+00 -4.589209E-02  9.138141E-03 -2.228386E+00                                                                                                                                                                                                                                                                                                                                                                                                                                                                                              
  1.435000E+03  1.250000E+02 -4.975000E+03  2.318295E-06 -1.406626E-08  3.451298E-09 -2.318250E-06  1.320236E-08 -8.045900E-11  1.974136E-11 -1.320210E-08  0.000000E+00  0.000000E+00  0.000000E+00  0.000000E+00  0.000000E+00  0.000000E+00  0.000000E+00  0.000000E+00  2.232863E+00 -1.396803E-02  3.427196E-03 -2.232817E+00                                                                                                                                                                                                                                                                                                                                                                                                                                                                                              
  1.250000E+02  1.250000E+02 -4.725000E+03  3.550104E-06  4.278471E-08  1.636685E-08 -3.549808E-06  1.992680E-08  2.405842E-10  9.203280E-11 -1.992513E-08  0.000000E+00  0.000000E+00  0.000000E+00  0.000000E+00  0.000000E+00  0.000000E+00  0.000000E+00  0.000000E+00  3.287730E+00  4.045089E-02  1.547407E-02 -3.287444E+00                                                                                                                                                                                                                                                                                                                                                                                                                                                                                              
  3.750000E+02  1.250000E+02 -4.725000E+03  3.598591E-06  1.587382E-07  7.347556E-08 -3.594337E-06  2.017494E-08  8.926306E-10  4.131997E-10 -2.015095E-08  0.000000E+00  0.000000E+00  0.000000E+00  0.000000E+00  0.000000E+00  0.000000E+00  0.000000E+00  0.000000E+00  3.300405E+00  1.500723E-01  6.946311E-02 -3.296259E+00                                                                                                                                                                                                                                                                                                                                                                                                                                                                                              
  6.250000E+02  1.250000E+02 -4.725000E+03  3.402771E-06  3.844061E-08  2.867357E-07 -3.390450E-06  1.884930E-08  2.161195E-10  1.612558E-09 -1.877895E-08  0.000000E+00  0.000000E+00  0.000000E+00  0.000000E+00  0.000000E+00  0.000000E+00  0.000000E+00  0.000000E+00  2.768433E+00  3.639820E-02  2.708545E-01 -2.754911E+00                                                                                                                                                                                                                                                                                                                                                                                                                                                                                              
  7.600000E+02  1.250000E+02 -4.725000E+03  3.351199E-06 -1.735090E-07  2.171986E-07 -3.339649E-06  1.856676E-08 -9.757885E-10  1.221356E-09 -1.850083E-08  0.000000E+00  0.000000E+00  0.000000E+00  0.000000E+00  0.000000E+00  0.000000E+00  0.000000E+00  0.000000E+00  2.727928E+00 -1.639093E-01  2.051783E-01 -2.715259E+00                                                                                                                                                                                                                                                                                                                                                                                                                                                                                              
  7.800000E+02  1.250000E+02 -4.725000E+03  3.333581E-06 -2.118860E-07  2.042580E-07 -3.320564E-06  1.846578E-08 -1.191625E-09  1.148583E-09 -1.839146E-08  0.000000E+00  0.000000E+00  0.000000E+00  0.000000E+00  0.000000E+00  0.000000E+00  0.000000E+00  0.000000E+00  2.706576E+00 -2.002184E-01  1.929597E-01 -2.692254E+00                                                                                                                                                                                                                                                                                                                                                                                                                                                                                              
  8.000000E+02  1.250000E+02 -4.725000E+03  3.573654E-06 -2.310456E-07  1.894156E-07 -3.561143E-06  1.994554E-08 -1.299351E-09  1.065183E-09 -1.987465E-08  0.000000E+00  0.000000E+00  0.000000E+00  0.000000E+00  0.000000E+00  0.000000E+00  0.000000E+00  0.000000E+00  3.148614E+00 -2.184004E-01  1.790244E-01 -3.135924E+00                                                                                                                                                                                                                                                                                                                                                                                                                                                                                              
  9.350000E+02  1.250000E+02 -4.725000E+03  3.588183E-06 -1.608710E-07  7.007905E-08 -3.583889E-06  2.011795E-08 -9.046444E-10  3.940967E-10 -2.009373E-08  0.000000E+00  0.000000E+00  0.000000E+00  0.000000E+00  0.000000E+00  0.000000E+00  0.000000E+00  0.000000E+00  3.292789E+00 -1.520900E-01  6.625273E-02 -3.288607E+00                                                                                                                                                                                                                                                                                                                                                                                                                                                                                              
  1.185000E+03  1.250000E+02 -4.725000E+03  3.529870E-06 -5.897276E-08  1.325027E-08 -3.529352E-06  1.981325E-08 -3.316017E-10  7.450612E-11 -1.981034E-08  0.000000E+00  0.000000E+00  0.000000E+00  0.000000E+00  0.000000E+00  0.000000E+00  0.000000E+00  0.000000E+00  3.269085E+00 -5.575633E-02  1.252756E-02 -3.268585E+00                                                                                                                                                                                                                                                                                                                                                                                                                                                                                              