Title="TOUGHREACT V3.30-OMP flowvector.tec: Liq & Gas Fluxes (kg/s/m^2), Pore Velocities (m/s), & Heat Fluxes (J/s/m2)"                                                                                                                                                                                                                                                                                                                                                                                                                                                                                                                                                                                                                                                                                                         
Variables= "X(m)"     "Y(m)"      "Z(m)"     "FluxLiq"   "FluxLiq_X"   "FluxLiq_Y"   "FluxLiq_Z"   "PorVelLiq"  "PorVelLiqX"  "PorVelLiqY"  "PorVelLiqZ"     "FluxGas"   "FluxGas_X"   "FluxGas_Y"   "FluxGas_Z"   "PorVelGas"  "PorVelGasX"  "PorVelGasY"  "PorVelGasZ"    "HeatFlux"  "HeatFlux_X"  "HeatFlux_Y"  "HeatFlux_Z"                                                                                                                                                                                                                                                                                                                                                                                                                                                                                                
Zone T= "1.00000000E+09 sec" I=     9 J=    10 K=    23 F=Point
  1.250000E+02  1.250000E+02 -5.425000E+03  3.920948E-08 -1.514248E-09  3.111308E-09 -3.905650E-08  2.267266E-10 -8.810390E-12  1.810268E-11 -2.258309E-10  0.000000E+00  0.000000E+00  0.000000E+00  0.000000E+00  0.000000E+00  0.000000E+00  0.000000E+00  0.000000E+00  4.089377E-02 -1.639340E-03  3.368319E-03 -4.072183E-02                                                                                                                                                                                                                                                                                                                                                                                                                                                                                              
  3.750000E+02  1.250000E+02 -5.425000E+03  4.038307E-08 -5.556442E-09  3.372413E-09 -3.985655E-08  2.335385E-10 -3.232898E-11  1.962183E-11 -2.304562E-10  0.000000E+00  0.000000E+00  0.000000E+00  0.000000E+00  0.000000E+00  0.000000E+00  0.000000E+00  0.000000E+00  4.214789E-02 -6.015485E-03  3.651007E-03 -4.155633E-02                                                                                                                                                                                                                                                                                                                                                                                                                                                                                              
  6.250000E+02  1.250000E+02 -5.425000E+03  4.182929E-08 -1.123987E-08  3.541582E-09 -4.013493E-08  2.419810E-10 -6.539617E-11  2.060593E-11 -2.320637E-10  0.000000E+00  0.000000E+00  0.000000E+00  0.000000E+00  0.000000E+00  0.000000E+00  0.000000E+00  0.000000E+00  4.374877E-02 -1.216847E-02  3.834175E-03 -4.184713E-02                                                                                                                                                                                                                                                                                                                                                                                                                                                                                              
  7.600000E+02  1.250000E+02 -5.425000E+03  4.228563E-08 -1.456002E-08  3.272264E-09 -3.956479E-08  2.446876E-10 -8.471313E-11  1.903873E-11 -2.287646E-10  0.000000E+00  0.000000E+00  0.000000E+00  0.000000E+00  0.000000E+00  0.000000E+00  0.000000E+00  0.000000E+00  4.430344E-02 -1.576292E-02  3.542607E-03 -4.125258E-02                                                                                                                                                                                                                                                                                                                                                                                                                                                                                              
  7.800000E+02  1.250000E+02 -5.425000E+03  4.230635E-08 -1.487543E-08  3.229514E-09 -3.947302E-08  2.448146E-10 -8.654801E-11  1.878996E-11 -2.282335E-10  0.000000E+00  0.000000E+00  0.000000E+00  0.000000E+00  0.000000E+00  0.000000E+00  0.000000E+00  0.000000E+00  4.433355E-02 -1.610438E-02  3.496325E-03 -4.115687E-02                                                                                                                                                                                                                                                                                                                                                                                                                                                                                              
  8.000000E+02  1.250000E+02 -5.425000E+03  4.231258E-08 -1.516207E-08  3.184145E-09 -3.937420E-08  2.448571E-10 -8.821515E-11  1.852596E-11 -2.276618E-10  0.000000E+00  0.000000E+00  0.000000E+00  0.000000E+00  0.000000E+00  0.000000E+00  0.000000E+00  0.000000E+00  4.434796E-02 -1.641470E-02  3.447208E-03 -4.105382E-02                                                                                                                                                                                                                                                                                                                                                                                                                                                                                              
  9.350000E+02  1.250000E+02 -5.425000E+03  4.181821E-08 -1.567731E-08  2.861957E-09 -3.866256E-08  2.420101E-10 -9.121125E-11  1.665119E-11 -2.235444E-10  0.000000E+00  0.000000E+00  0.000000E+00  0.000000E+00  0.000000E+00  0.000000E+00  0.000000E+00  0.000000E+00  4.384858E-02 -1.697251E-02  3.098401E-03 -4.031168E-02                                                                                                                                                                                                                                                                                                                                                                                                                                                                                              
  1.185000E+03  1.250000E+02 -5.425000E+03  3.915526E-08 -1.319773E-08  2.183377E-09 -3.679928E-08  2.265537E-10 -7.678352E-11  1.270280E-11 -2.127663E-10  0.000000E+00  0.000000E+00  0.000000E+00  0.000000E+00  0.000000E+00  0.000000E+00  0.000000E+00  0.000000E+00  4.101097E-02 -1.428808E-02  2.363759E-03 -3.836878E-02                                                                                                                                                                                                                                                                                                                                                                                                                                                                                              
  1.435000E+03  1.250000E+02 -5.425000E+03  3.612276E-08 -5.169409E-09  1.826336E-09 -3.570428E-08  2.088821E-10 -3.007497E-11  1.062538E-11 -2.064324E-10  0.000000E+00  0.000000E+00  0.000000E+00  0.000000E+00  0.000000E+00  0.000000E+00  0.000000E+00  0.000000E+00  3.769728E-02 -5.596490E-03  1.977222E-03 -3.722707E-02                                                                                                                                                                                                                                                                                                                                                                                                                                                                                              
  1.250000E+02  1.250000E+02 -5.225000E+03  1.195809E-07 -2.130520E-09  2.564759E-09 -1.195344E-07  6.855604E-10 -1.225438E-11  1.475212E-11 -6.852921E-10  0.000000E+00  0.000000E+00  0.000000E+00  0.000000E+00  0.000000E+00  0.000000E+00  0.000000E+00  0.000000E+00  1.207683E-01 -2.221381E-03  2.674117E-03 -1.207183E-01                                                                                                                                                                                                                                                                                                                                                                                                                                                                                              
  3.750000E+02  1.250000E+02 -5.225000E+03  1.248561E-07 -6.320557E-09  2.806309E-09 -1.246645E-07  7.157378E-10 -3.635455E-11  1.614145E-11 -7.146317E-10  0.000000E+00  0.000000E+00  0.000000E+00  0.000000E+00  0.000000E+00  0.000000E+00  0.000000E+00  0.000000E+00  1.260641E-01 -6.590170E-03  2.925991E-03 -1.258577E-01                                                                                                                                                                                                                                                                                                                                                                                                                                                                                              
  6.250000E+02  1.250000E+02 -5.225000E+03  1.280346E-07 -1.039078E-08  3.146870E-09 -1.275734E-07  7.339123E-10 -5.976513E-11  1.810019E-11 -7.312509E-10  0.000000E+00  0.000000E+00  0.000000E+00  0.000000E+00  0.000000E+00  0.000000E+00  0.000000E+00  0.000000E+00  1.292619E-01 -1.083404E-02  3.281119E-03 -1.287653E-01                                                                                                                                                                                                                                                                                                                                                                                                                                                                                              
  7.600000E+02  1.250000E+02 -5.225000E+03  1.254714E-07 -1.248890E-08  2.793945E-09 -1.248170E-07  7.192435E-10 -7.183266E-11  1.607004E-11 -7.154670E-10  0.000000E+00  0.000000E+00  0.000000E+00  0.000000E+00  0.000000E+00  0.000000E+00  0.000000E+00  0.000000E+00  1.267013E-01 -1.302166E-02  2.913131E-03 -1.259967E-01                                                                                                                                                                                                                                                                                                                                                                                                                                                                                              
  7.800000E+02  1.250000E+02 -5.225000E+03  1.250318E-07 -1.265300E-08  2.738121E-09 -1.243598E-07  7.167278E-10 -7.277630E-11  1.574892E-11 -7.128494E-10  0.000000E+00  0.000000E+00  0.000000E+00  0.000000E+00  0.000000E+00  0.000000E+00  0.000000E+00  0.000000E+00  1.262612E-01 -1.319275E-02  2.854925E-03 -1.255377E-01                                                                                                                                                                                                                                                                                                                                                                                                                                                                                              
  8.000000E+02  1.250000E+02 -5.225000E+03  1.245411E-07 -1.279596E-08  2.679224E-09 -1.238530E-07  7.139193E-10 -7.359814E-11  1.541014E-11 -7.099483E-10  0.000000E+00  0.000000E+00  0.000000E+00  0.000000E+00  0.000000E+00  0.000000E+00  0.000000E+00  0.000000E+00  1.257703E-01 -1.334179E-02  2.793514E-03 -1.250295E-01                                                                                                                                                                                                                                                                                                                                                                                                                                                                                              
  9.350000E+02  1.250000E+02 -5.225000E+03  1.208719E-07 -1.279668E-08  2.264432E-09 -1.201713E-07  6.929158E-10 -7.360111E-11  1.302419E-11 -6.888726E-10  0.000000E+00  0.000000E+00  0.000000E+00  0.000000E+00  0.000000E+00  0.000000E+00  0.000000E+00  0.000000E+00  1.220884E-01 -1.334249E-02  2.361019E-03 -1.213342E-01                                                                                                                                                                                                                                                                                                                                                                                                                                                                                              
  1.185000E+03  1.250000E+02 -5.225000E+03  1.114241E-07 -1.054952E-08  1.643325E-09 -1.109114E-07  6.388247E-10 -6.067536E-11  9.451594E-12 -6.358665E-10  0.000000E+00  0.000000E+00  0.000000E+00  0.000000E+00  0.000000E+00  0.000000E+00  0.000000E+00  0.000000E+00  1.125902E-01 -1.099946E-02  1.713413E-03 -1.120385E-01                                                                                                                                                                                                                                                                                                                                                                                                                                                                                              
  1.435000E+03  1.250000E+02 -5.225000E+03  1.061163E-07 -4.183968E-09  1.461139E-09 -1.060237E-07  6.084133E-10 -2.406380E-11  8.403630E-12 -6.078791E-10  0.000000E+00  0.000000E+00  0.000000E+00  0.000000E+00  0.000000E+00  0.000000E+00  0.000000E+00  0.000000E+00  1.072265E-01 -4.362414E-03  1.523456E-03 -1.071269E-01                                                                                                                                                                                                                                                                                                                                                                                                                                                                                              
  1.250000E+02  1.250000E+02 -4.975000E+03  9.474111E-08 -6.431592E-09 -3.776691E-10 -9.452180E-08  5.398363E-10 -3.649265E-11 -2.142915E-12 -5.385972E-10  0.000000E+00  0.000000E+00  0.000000E+00  0.000000E+00  0.000000E+00  0.000000E+00  0.000000E+00  0.000000E+00  9.349816E-02 -6.393179E-03 -3.754104E-04 -9.327857E-02                                                                                                                                                                                                                                                                                                                                                                                                                                                                                              
  3.750000E+02  1.250000E+02 -4.975000E+03  1.160701E-07 -1.316359E-08 -1.192147E-09 -1.153151E-07  6.603269E-10 -7.468923E-11 -6.764205E-12 -6.560544E-10  0.000000E+00  0.000000E+00  0.000000E+00  0.000000E+00  0.000000E+00  0.000000E+00  0.000000E+00  0.000000E+00  1.138938E-01 -1.308511E-02 -1.185044E-03 -1.131334E-01                                                                                                                                                                                                                                                                                                                                                                                                                                                                                              
  6.250000E+02  1.250000E+02 -4.975000E+03  1.326830E-07 -8.683410E-09 -1.877490E-10 -1.323985E-07  7.540057E-10 -4.926863E-11 -1.065282E-12 -7.523935E-10  0.000000E+00  0.000000E+00  0.000000E+00  0.000000E+00  0.000000E+00  0.000000E+00  0.000000E+00  0.000000E+00  1.295812E-01 -8.631716E-03 -1.866462E-04 -1.292932E-01                                                                                                                                                                                                                                                                                                                                                                                                                                                                                              
  7.600000E+02  1.250000E+02 -4.975000E+03  1.245520E-07 -3.464484E-09 -9.161507E-10 -1.245004E-07  7.080389E-10 -1.965699E-11 -5.198149E-12 -7.077469E-10  0.000000E+00  0.000000E+00  0.000000E+00  0.000000E+00  0.000000E+00  0.000000E+00  0.000000E+00  0.000000E+00  1.217924E-01 -3.443834E-03 -9.107441E-04 -1.217403E-01                                                                                                                                                                                                                                                                                                                                                                                                                                                                                              
  7.800000E+02  1.250000E+02 -4.975000E+03  1.230236E-07 -2.594976E-09 -1.029369E-09 -1.229920E-07  6.994032E-10 -1.472350E-11 -5.840529E-12 -6.992239E-10  0.000000E+00  0.000000E+00  0.000000E+00  0.000000E+00  0.000000E+00  0.000000E+00  0.000000E+00  0.000000E+00  1.203322E-01 -2.579513E-03 -1.023289E-03 -1.203002E-01                                                                                                                                                                                                                                                                                                                                                                                                                                                                                              
  8.000000E+02  1.250000E+02 -4.975000E+03  1.206477E-07 -1.796381E-09 -1.145873E-09 -1.206289E-07  6.860273E-10 -1.019238E-11 -6.501556E-12 -6.859208E-10  0.000000E+00  0.000000E+00  0.000000E+00  0.000000E+00  0.000000E+00  0.000000E+00  0.000000E+00  0.000000E+00  1.181195E-01 -1.785675E-03 -1.139099E-03 -1.181005E-01                                                                                                                                                                                                                                                                                                                                                                                                                                                                                              
  9.350000E+02  1.250000E+02 -4.975000E+03  1.067499E-07  5.353695E-10 -1.917401E-09 -1.067313E-07  6.075372E-10  3.037586E-12 -1.087899E-11 -6.074322E-10  0.000000E+00  0.000000E+00  0.000000E+00  0.000000E+00  0.000000E+00  0.000000E+00  0.000000E+00  0.000000E+00  1.048793E-01  5.321760E-04 -1.905995E-03 -1.048606E-01                                                                                                                                                                                                                                                                                                                                                                                                                                                                                              
  1.185000E+03  1.250000E+02 -4.975000E+03  7.818927E-08  9.941591E-10 -1.325121E-09 -7.817171E-08  4.460743E-10  5.640689E-12 -7.518487E-12 -4.459753E-10  0.000000E+00  0.000000E+00  0.000000E+00  0.000000E+00  0.000000E+00  0.000000E+00  0.000000E+00  0.000000E+00  7.752666E-02  9.882295E-04 -1.317214E-03 -7.750916E-02                                                                                                                                                                                                                                                                                                                                                                                                                                                                                              
  1.435000E+03  1.250000E+02 -4.975000E+03  6.723312E-08 -2.556846E-10 -6.429605E-11 -6.723260E-08  3.840383E-10 -1.450706E-12 -3.648039E-13 -3.840354E-10  0.000000E+00  0.000000E+00  0.000000E+00  0.000000E+00  0.000000E+00  0.000000E+00  0.000000E+00  0.000000E+00  6.683189E-02 -2.541588E-04 -6.391232E-05 -6.683138E-02                                                                                                                                                                                                                                                                                                                                                                                                                                                                                              
  1.250000E+02  1.250000E+02 -4.725000E+03  2.408509E-07 -2.252630E-08 -9.610611E-09  2.396025E-07  1.338887E-09 -1.261716E-10 -5.383532E-11  1.331842E-09  0.000000E+00  0.000000E+00  0.000000E+00  0.000000E+00  0.000000E+00  0.000000E+00  0.000000E+00  0.000000E+00  2.277845E-01 -2.128937E-02 -9.087755E-03  2.266052E-01                                                                                                                                                                                                                                                                                                                                                                                                                                                                                              
  3.750000E+02  1.250000E+02 -4.725000E+03  1.902560E-07 -4.263063E-08 -2.007874E-08  1.843281E-07  1.031516E-09 -2.387221E-10 -1.124193E-10  9.971960E-10  0.000000E+00  0.000000E+00  0.000000E+00  0.000000E+00  0.000000E+00  0.000000E+00  0.000000E+00  0.000000E+00  1.797936E-01 -4.023786E-02 -1.894065E-02  1.742065E-01                                                                                                                                                                                                                                                                                                                                                                                                                                                                                              
  6.250000E+02  1.250000E+02 -4.725000E+03  1.209223E-07 -1.142315E-08 -1.798447E-08  1.190306E-07  6.305539E-10 -6.396729E-11 -1.006276E-10  6.191773E-10  0.000000E+00  0.000000E+00  0.000000E+00  0.000000E+00  0.000000E+00  0.000000E+00  0.000000E+00  0.000000E+00  1.139674E-01 -1.076640E-02 -1.693126E-02  1.121872E-01                                                                                                                                                                                                                                                                                                                                                                                                                                                                                              
  7.600000E+02  1.250000E+02 -4.725000E+03  1.166687E-07  2.150289E-08 -1.967879E-08  1.129688E-07  6.105226E-10  1.203403E-10 -1.101138E-10  5.883290E-10  0.000000E+00  0.000000E+00  0.000000E+00  0.000000E+00  0.000000E+00  0.000000E+00  0.000000E+00  0.000000E+00  1.099708E-01  2.026807E-02 -1.853112E-02  1.064865E-01                                                                                                                                                                                                                                                                                                                                                                                                                                                                                              
  7.800000E+02  1.250000E+02 -4.725000E+03  1.151707E-07  3.033473E-08 -1.998820E-08  1.092912E-07  6.038931E-10  1.697883E-10 -1.118461E-10  5.686381E-10  0.000000E+00  0.000000E+00  0.000000E+00  0.000000E+00  0.000000E+00  0.000000E+00  0.000000E+00  0.000000E+00  1.085611E-01  2.859445E-02 -1.882302E-02  1.030222E-01                                                                                                                                                                                                                                                                                                                                                                                                                                                                                              
  8.000000E+02  1.250000E+02 -4.725000E+03  1.612334E-07  3.639420E-08 -2.037541E-08  1.557450E-07  8.600323E-10  2.037565E-10 -1.140360E-10  8.277286E-10  0.000000E+00  0.000000E+00  0.000000E+00  0.000000E+00  0.000000E+00  0.000000E+00  0.000000E+00  0.000000E+00  1.521897E-01  3.433184E-02 -1.919018E-02  1.470196E-01                                                                                                                                                                                                                                                                                                                                                                                                                                                                                              
  9.350000E+02  1.250000E+02 -4.725000E+03  2.027398E-07  4.110800E-08 -2.156670E-08  1.973536E-07  1.100780E-09  2.302191E-10 -1.207502E-10  1.069643E-09  0.000000E+00  0.000000E+00  0.000000E+00  0.000000E+00  0.000000E+00  0.000000E+00  0.000000E+00  0.000000E+00  1.916034E-01  3.883020E-02 -2.034591E-02  1.865211E-01                                                                                                                                                                                                                                                                                                                                                                                                                                                                                              
  1.185000E+03  1.250000E+02 -4.725000E+03  2.608948E-07  2.902323E-08 -1.173564E-08  2.590097E-07  1.452314E-09  1.625664E-10 -6.573751E-11  1.441689E-09  0.000000E+00  0.000000E+00  0.000000E+00  0.000000E+00  0.000000E+00  0.000000E+00  0.000000E+00  0.000000E+00  2.467437E-01  2.743463E-02 -1.109651E-02  2.449625E-01                                                                                                                                                                                                                                                                                                                                                                                                                                                                                              