Title="TOUGHREACT V3.30-OMP flowvector.tec: Liq & Gas Fluxes (kg/s/m^2), Pore Velocities (m/s), & Heat Fluxes (J/s/m2)"                                                                                                                                                                                                                                                                                                                                                                                                                                                                                                                                                                                                                                                                                                         
Variables= "X(m)"     "Y(m)"      "Z(m)"     "FluxLiq"   "FluxLiq_X"   "FluxLiq_Y"   "FluxLiq_Z"   "PorVelLiq"  "PorVelLiqX"  "PorVelLiqY"  "PorVelLiqZ"     "FluxGas"   "FluxGas_X"   "FluxGas_Y"   "FluxGas_Z"   "PorVelGas"  "PorVelGasX"  "PorVelGasY"  "PorVelGasZ"    "HeatFlux"  "HeatFlux_X"  "HeatFlux_Y"  "HeatFlux_Z"                                                                                                                                                                                                                                                                                                                                                                                                                                                                                                
Zone T= "1.00000000E+07 sec" I=     9 J=    10 K=    23 F=Point
  1.250000E+02  1.250000E+02 -5.425000E+03  3.634900E-07 -2.388945E-14 -1.197240E-14  3.634900E-07  2.132740E-09 -1.408855E-16 -7.060599E-17  2.132740E-09  0.000000E+00  0.000000E+00  0.000000E+00  0.000000E+00  0.000000E+00  0.000000E+00  0.000000E+00  0.000000E+00  3.924426E-01 -2.579228E-08 -1.292602E-08  3.924426E-01                                                                                                                                                                                                                                                                                                                                                                                                                                                                                              
  3.750000E+02  1.250000E+02 -5.425000E+03  3.634899E-07 -1.102119E-13 -8.680048E-14  3.634899E-07  2.132739E-09 -6.499634E-16 -5.118968E-16  2.132739E-09  0.000000E+00  0.000000E+00  0.000000E+00  0.000000E+00  0.000000E+00  0.000000E+00  0.000000E+00  0.000000E+00  3.924425E-01 -1.189905E-07 -9.371429E-08  3.924425E-01                                                                                                                                                                                                                                                                                                                                                                                                                                                                                              
  6.250000E+02  1.250000E+02 -5.425000E+03  3.634893E-07 -7.778362E-15 -4.369674E-13  3.634893E-07  2.132735E-09 -4.587208E-17 -2.576970E-15  2.132735E-09  0.000000E+00  0.000000E+00  0.000000E+00  0.000000E+00  0.000000E+00  0.000000E+00  0.000000E+00  0.000000E+00  3.924418E-01 -8.397922E-09 -4.717726E-07  3.924418E-01                                                                                                                                                                                                                                                                                                                                                                                                                                                                                              
  7.600000E+02  1.250000E+02 -5.425000E+03  3.634896E-07  1.585903E-13 -2.627388E-13  3.634896E-07  2.132737E-09  9.352699E-16 -1.549475E-15  2.132737E-09  0.000000E+00  0.000000E+00  0.000000E+00  0.000000E+00  0.000000E+00  0.000000E+00  0.000000E+00  0.000000E+00  3.924422E-01  1.712223E-07 -2.836664E-07  3.924422E-01                                                                                                                                                                                                                                                                                                                                                                                                                                                                                              
  7.800000E+02  1.250000E+02 -5.425000E+03  3.634896E-07  1.602616E-13 -2.371722E-13  3.634896E-07  2.132737E-09  9.451263E-16 -1.398698E-15  2.132737E-09  0.000000E+00  0.000000E+00  0.000000E+00  0.000000E+00  0.000000E+00  0.000000E+00  0.000000E+00  0.000000E+00  3.924422E-01  1.730267E-07 -2.560634E-07  3.924422E-01                                                                                                                                                                                                                                                                                                                                                                                                                                                                                              
  8.000000E+02  1.250000E+02 -5.425000E+03  3.634897E-07  1.595854E-13 -2.123436E-13  3.634897E-07  2.132738E-09  9.411382E-16 -1.252275E-15  2.132738E-09  0.000000E+00  0.000000E+00  0.000000E+00  0.000000E+00  0.000000E+00  0.000000E+00  0.000000E+00  0.000000E+00  3.924423E-01  1.722966E-07 -2.292572E-07  3.924423E-01                                                                                                                                                                                                                                                                                                                                                                                                                                                                                              
  9.350000E+02  1.250000E+02 -5.425000E+03  3.634900E-07  9.593304E-14 -5.165412E-14  3.634900E-07  2.132739E-09  5.657551E-16 -3.046248E-16  2.132739E-09  0.000000E+00  0.000000E+00  0.000000E+00  0.000000E+00  0.000000E+00  0.000000E+00  0.000000E+00  0.000000E+00  3.924426E-01  1.035743E-07 -5.576846E-08  3.924426E-01                                                                                                                                                                                                                                                                                                                                                                                                                                                                                              
  1.185000E+03  1.250000E+02 -5.425000E+03  3.634901E-07  1.829310E-14 -5.249951E-15  3.634901E-07  2.132740E-09  1.078817E-16 -3.096104E-17  2.132740E-09  0.000000E+00  0.000000E+00  0.000000E+00  0.000000E+00  0.000000E+00  0.000000E+00  0.000000E+00  0.000000E+00  3.924427E-01  1.975018E-08 -5.668119E-09  3.924427E-01                                                                                                                                                                                                                                                                                                                                                                                                                                                                                              
  1.435000E+03  1.250000E+02 -5.425000E+03  3.634901E-07  1.730017E-15  2.019305E-16  3.634901E-07  2.132740E-09  1.020259E-17  1.190864E-18  2.132740E-09  0.000000E+00  0.000000E+00  0.000000E+00  0.000000E+00  0.000000E+00  0.000000E+00  0.000000E+00  0.000000E+00  3.924427E-01  1.867816E-09  2.180146E-10  3.924427E-01                                                                                                                                                                                                                                                                                                                                                                                                                                                                                              
  1.250000E+02  1.250000E+02 -5.225000E+03  8.100426E-07 -1.237692E-13 -6.525998E-14  8.100426E-07  4.723248E-09 -7.224084E-16 -3.809053E-16  4.723248E-09  0.000000E+00  0.000000E+00  0.000000E+00  0.000000E+00  0.000000E+00  0.000000E+00  0.000000E+00  0.000000E+00  8.570931E-01 -1.287854E-07 -6.790483E-08  8.570931E-01                                                                                                                                                                                                                                                                                                                                                                                                                                                                                              
  3.750000E+02  1.250000E+02 -5.225000E+03  8.100414E-07 -7.150514E-13 -5.838750E-13  8.100414E-07  4.723241E-09 -4.173566E-15 -3.407924E-15  4.723241E-09  0.000000E+00  0.000000E+00  0.000000E+00  0.000000E+00  0.000000E+00  0.000000E+00  0.000000E+00  0.000000E+00  8.570918E-01 -7.440310E-07 -6.075382E-07  8.570918E-01                                                                                                                                                                                                                                                                                                                                                                                                                                                                                              
  6.250000E+02  1.250000E+02 -5.225000E+03  8.100337E-07 -2.344485E-14 -3.822852E-12  8.100337E-07  4.723196E-09 -1.368414E-16 -2.231298E-14  4.723196E-09  0.000000E+00  0.000000E+00  0.000000E+00  0.000000E+00  0.000000E+00  0.000000E+00  0.000000E+00  0.000000E+00  8.570838E-01 -2.439502E-08 -3.977784E-06  8.570838E-01                                                                                                                                                                                                                                                                                                                                                                                                                                                                                              
  7.600000E+02  1.250000E+02 -5.225000E+03  8.100380E-07  1.128931E-12 -2.122393E-12  8.100380E-07  4.723221E-09  6.589271E-15 -1.238785E-14  4.723221E-09  0.000000E+00  0.000000E+00  0.000000E+00  0.000000E+00  0.000000E+00  0.000000E+00  0.000000E+00  0.000000E+00  8.570883E-01  1.174684E-06 -2.208409E-06  8.570883E-01                                                                                                                                                                                                                                                                                                                                                                                                                                                                                              
  7.800000E+02  1.250000E+02 -5.225000E+03  8.100386E-07  1.104786E-12 -1.884111E-12  8.100386E-07  4.723224E-09  6.448344E-15 -1.099706E-14  4.723224E-09  0.000000E+00  0.000000E+00  0.000000E+00  0.000000E+00  0.000000E+00  0.000000E+00  0.000000E+00  0.000000E+00  8.570889E-01  1.149561E-06 -1.960470E-06  8.570889E-01                                                                                                                                                                                                                                                                                                                                                                                                                                                                                              
  8.000000E+02  1.250000E+02 -5.225000E+03  8.100391E-07  1.063706E-12 -1.664852E-12  8.100391E-07  4.723228E-09  6.208573E-15 -9.717305E-15  4.723228E-09  0.000000E+00  0.000000E+00  0.000000E+00  0.000000E+00  0.000000E+00  0.000000E+00  0.000000E+00  0.000000E+00  8.570895E-01  1.106816E-06 -1.732326E-06  8.570895E-01                                                                                                                                                                                                                                                                                                                                                                                                                                                                                              
  9.350000E+02  1.250000E+02 -5.225000E+03  8.100424E-07  5.988449E-13 -3.276301E-13  8.100424E-07  4.723247E-09  3.495300E-15 -1.912291E-15  4.723247E-09  0.000000E+00  0.000000E+00  0.000000E+00  0.000000E+00  0.000000E+00  0.000000E+00  0.000000E+00  0.000000E+00  8.570929E-01  6.231149E-07 -3.409083E-07  8.570929E-01                                                                                                                                                                                                                                                                                                                                                                                                                                                                                              
  1.185000E+03  1.250000E+02 -5.225000E+03  8.100431E-07  8.565858E-14 -3.062862E-14  8.100431E-07  4.723251E-09  4.999665E-16 -1.787712E-16  4.723251E-09  0.000000E+00  0.000000E+00  0.000000E+00  0.000000E+00  0.000000E+00  0.000000E+00  0.000000E+00  0.000000E+00  8.570936E-01  8.913015E-08 -3.186994E-08  8.570936E-01                                                                                                                                                                                                                                                                                                                                                                                                                                                                                              
  1.435000E+03  1.250000E+02 -5.225000E+03  8.100431E-07  6.827502E-15 -4.206975E-15  8.100431E-07  4.723251E-09  3.985033E-17 -2.455500E-17  4.723251E-09  0.000000E+00  0.000000E+00  0.000000E+00  0.000000E+00  0.000000E+00  0.000000E+00  0.000000E+00  0.000000E+00  8.570936E-01  7.104207E-09 -4.377475E-09  8.570936E-01                                                                                                                                                                                                                                                                                                                                                                                                                                                                                              
  1.250000E+02  1.250000E+02 -4.975000E+03  8.792698E-07 -1.137270E-12 -6.243966E-13  8.792698E-07  5.070922E-09 -6.557410E-15 -3.600222E-15  5.070922E-09  0.000000E+00  0.000000E+00  0.000000E+00  0.000000E+00  0.000000E+00  0.000000E+00  0.000000E+00  0.000000E+00  8.938128E-01 -1.127927E-06 -6.192671E-07  8.938128E-01                                                                                                                                                                                                                                                                                                                                                                                                                                                                                              
  3.750000E+02  1.250000E+02 -4.975000E+03  8.792631E-07 -8.549127E-12 -7.163690E-12  8.792631E-07  5.070883E-09 -4.929360E-14 -4.130527E-14  5.070883E-09  0.000000E+00  0.000000E+00  0.000000E+00  0.000000E+00  0.000000E+00  0.000000E+00  0.000000E+00  0.000000E+00  8.938062E-01 -8.478895E-06 -7.104839E-06  8.938062E-01                                                                                                                                                                                                                                                                                                                                                                                                                                                                                              
  6.250000E+02  1.250000E+02 -4.975000E+03  8.791916E-07  2.079664E-13 -6.713323E-11  8.791916E-07  5.070473E-09  1.199118E-15 -3.870849E-13  5.070473E-09  0.000000E+00  0.000000E+00  0.000000E+00  0.000000E+00  0.000000E+00  0.000000E+00  0.000000E+00  0.000000E+00  8.937349E-01  2.062579E-07 -6.658173E-05  8.937349E-01                                                                                                                                                                                                                                                                                                                                                                                                                                                                                              
  7.600000E+02  1.250000E+02 -4.975000E+03  8.792365E-07  1.478262E-11 -3.254904E-11  8.792365E-07  5.070731E-09  8.523541E-14 -1.876752E-13  5.070731E-09  0.000000E+00  0.000000E+00  0.000000E+00  0.000000E+00  0.000000E+00  0.000000E+00  0.000000E+00  0.000000E+00  8.937797E-01  1.466118E-05 -3.228165E-05  8.937797E-01                                                                                                                                                                                                                                                                                                                                                                                                                                                                                              
  7.800000E+02  1.250000E+02 -4.975000E+03  8.792424E-07  1.370058E-11 -2.799385E-11  8.792424E-07  5.070765E-09  7.899646E-14 -1.614103E-13  5.070765E-09  0.000000E+00  0.000000E+00  0.000000E+00  0.000000E+00  0.000000E+00  0.000000E+00  0.000000E+00  0.000000E+00  8.937855E-01  1.358803E-05 -2.776388E-05  8.937855E-01                                                                                                                                                                                                                                                                                                                                                                                                                                                                                              
  8.000000E+02  1.250000E+02 -4.975000E+03  8.792472E-07  1.238824E-11 -2.416951E-11  8.792472E-07  5.070792E-09  7.142964E-14 -1.393595E-13  5.070792E-09  0.000000E+00  0.000000E+00  0.000000E+00  0.000000E+00  0.000000E+00  0.000000E+00  0.000000E+00  0.000000E+00  8.937903E-01  1.228647E-05 -2.397096E-05  8.937903E-01                                                                                                                                                                                                                                                                                                                                                                                                                                                                                              
  9.350000E+02  1.250000E+02 -4.975000E+03  8.792713E-07  6.491140E-12 -3.510270E-12  8.792713E-07  5.070930E-09  3.742740E-14 -2.023994E-14  5.070930E-09  0.000000E+00  0.000000E+00  0.000000E+00  0.000000E+00  0.000000E+00  0.000000E+00  0.000000E+00  0.000000E+00  8.938143E-01  6.437814E-06 -3.481433E-06  8.938143E-01                                                                                                                                                                                                                                                                                                                                                                                                                                                                                              
  1.185000E+03  1.250000E+02 -4.975000E+03  8.792743E-07  6.738469E-13 -2.711063E-13  8.792743E-07  5.070948E-09  3.885348E-15 -1.563178E-15  5.070948E-09  0.000000E+00  0.000000E+00  0.000000E+00  0.000000E+00  0.000000E+00  0.000000E+00  0.000000E+00  0.000000E+00  8.938174E-01  6.683112E-07 -2.688791E-07  8.938174E-01                                                                                                                                                                                                                                                                                                                                                                                                                                                                                              
  1.435000E+03  1.250000E+02 -4.975000E+03  8.792743E-07  3.316455E-14 -4.068958E-14  8.792743E-07  5.070948E-09  1.912242E-16 -2.346129E-16  5.070948E-09  0.000000E+00  0.000000E+00  0.000000E+00  0.000000E+00  0.000000E+00  0.000000E+00  0.000000E+00  0.000000E+00  8.938174E-01  3.289210E-08 -4.035531E-08  8.938174E-01                                                                                                                                                                                                                                                                                                                                                                                                                                                                                              
  1.250000E+02  1.250000E+02 -4.725000E+03  3.625303E-07 -6.519179E-12 -3.956183E-12  3.625303E-07  2.081980E-09 -3.715644E-14 -2.254849E-14  2.081980E-09  0.000000E+00  0.000000E+00  0.000000E+00  0.000000E+00  0.000000E+00  0.000000E+00  0.000000E+00  0.000000E+00  3.653244E-01 -6.149130E-06 -3.731618E-06  3.653244E-01                                                                                                                                                                                                                                                                                                                                                                                                                                                                                              
  3.750000E+02  1.250000E+02 -4.725000E+03  3.625415E-07 -7.590610E-11 -6.277066E-11  3.625415E-07  2.082043E-09 -4.326312E-13 -3.577650E-13  2.082043E-09  0.000000E+00  0.000000E+00  0.000000E+00  0.000000E+00  0.000000E+00  0.000000E+00  0.000000E+00  0.000000E+00  3.653341E-01 -7.159744E-05 -5.920761E-05  3.653341E-01                                                                                                                                                                                                                                                                                                                                                                                                                                                                                              
  6.250000E+02  1.250000E+02 -4.725000E+03  3.624123E-07  1.131257E-11 -1.100421E-09  3.624106E-07  2.081331E-09  6.447663E-14 -6.271902E-12  2.081321E-09  0.000000E+00  0.000000E+00  0.000000E+00  0.000000E+00  0.000000E+00  0.000000E+00  0.000000E+00  0.000000E+00  3.652436E-01  1.067043E-05 -1.037958E-03  3.652422E-01                                                                                                                                                                                                                                                                                                                                                                                                                                                                                              
  7.600000E+02  1.250000E+02 -4.725000E+03  3.625483E-07  1.520438E-10 -4.122595E-10  3.625480E-07  2.082086E-09  8.665823E-13 -2.349695E-12  2.082085E-09  0.000000E+00  0.000000E+00  0.000000E+00  0.000000E+00  0.000000E+00  0.000000E+00  0.000000E+00  0.000000E+00  3.653465E-01  1.434133E-04 -3.888584E-04  3.653463E-01                                                                                                                                                                                                                                                                                                                                                                                                                                                                                              
  7.800000E+02  1.250000E+02 -4.725000E+03  3.625913E-07  1.287947E-10 -3.226158E-10  3.625912E-07  2.082326E-09  7.340727E-13 -1.838767E-12  2.082325E-09  0.000000E+00  0.000000E+00  0.000000E+00  0.000000E+00  0.000000E+00  0.000000E+00  0.000000E+00  0.000000E+00  3.653791E-01  1.214839E-04 -3.043032E-04  3.653789E-01                                                                                                                                                                                                                                                                                                                                                                                                                                                                                              
  8.000000E+02  1.250000E+02 -4.725000E+03  3.625945E-07  1.009044E-10 -2.611796E-10  3.625944E-07  2.082343E-09  5.751103E-13 -1.488608E-12  2.082343E-09  0.000000E+00  0.000000E+00  0.000000E+00  0.000000E+00  0.000000E+00  0.000000E+00  0.000000E+00  0.000000E+00  3.653812E-01  9.517673E-05 -2.463543E-04  3.653811E-01                                                                                                                                                                                                                                                                                                                                                                                                                                                                                              
  9.350000E+02  1.250000E+02 -4.725000E+03  3.625648E-07  4.643745E-11 -2.445710E-11  3.625648E-07  2.082176E-09  2.646729E-13 -1.393947E-13  2.082176E-09  0.000000E+00  0.000000E+00  0.000000E+00  0.000000E+00  0.000000E+00  0.000000E+00  0.000000E+00  0.000000E+00  3.653559E-01  4.380152E-05 -2.306884E-05  3.653559E-01                                                                                                                                                                                                                                                                                                                                                                                                                                                                                              
  1.185000E+03  1.250000E+02 -4.725000E+03  3.625586E-07  2.992578E-12 -1.584626E-12  3.625586E-07  2.082141E-09  1.705637E-14 -9.031669E-15  2.082141E-09  0.000000E+00  0.000000E+00  0.000000E+00  0.000000E+00  0.000000E+00  0.000000E+00  0.000000E+00  0.000000E+00  3.653505E-01  2.822710E-06 -1.494678E-06  3.653505E-01                                                                                                                                                                                                                                                                                                                                                                                                                                                                                              