Title="TOUGHREACT V3.30-OMP flowvector.tec: Liq & Gas Fluxes (kg/s/m^2), Pore Velocities (m/s), & Heat Fluxes (J/s/m2)"                                                                                                                                                                                                                                                                                                                                                                                                                                                                                                                                                                                                                                                                                                         
Variables= "X(m)"     "Y(m)"      "Z(m)"     "FluxLiq"   "FluxLiq_X"   "FluxLiq_Y"   "FluxLiq_Z"   "PorVelLiq"  "PorVelLiqX"  "PorVelLiqY"  "PorVelLiqZ"     "FluxGas"   "FluxGas_X"   "FluxGas_Y"   "FluxGas_Z"   "PorVelGas"  "PorVelGasX"  "PorVelGasY"  "PorVelGasZ"    "HeatFlux"  "HeatFlux_X"  "HeatFlux_Y"  "HeatFlux_Z"                                                                                                                                                                                                                                                                                                                                                                                                                                                                                                
Zone T= "1.00000000E+06 sec" I=     9 J=    10 K=    23 F=Point
  1.250000E+02  1.250000E+02 -5.425000E+03  4.784949E-07 -1.331034E-15 -8.665596E-16  4.784949E-07  2.807028E-09 -7.848052E-18 -5.109415E-18  2.807028E-09  0.000000E+00  0.000000E+00  0.000000E+00  0.000000E+00  0.000000E+00  0.000000E+00  0.000000E+00  0.000000E+00  5.166252E-01 -1.437102E-09 -9.356141E-10  5.166252E-01                                                                                                                                                                                                                                                                                                                                                                                                                                                                                              
  3.750000E+02  1.250000E+02 -5.425000E+03  4.784949E-07 -3.271991E-16  5.195003E-16  4.784949E-07  2.807028E-09 -1.929234E-18  3.063081E-18  2.807028E-09  0.000000E+00  0.000000E+00  0.000000E+00  0.000000E+00  0.000000E+00  0.000000E+00  0.000000E+00  0.000000E+00  5.166252E-01 -3.532730E-10  5.608983E-10  5.166252E-01                                                                                                                                                                                                                                                                                                                                                                                                                                                                                              
  6.250000E+02  1.250000E+02 -5.425000E+03  4.784949E-07 -8.047240E-16 -7.764313E-16  4.784949E-07  2.807028E-09 -4.744819E-18 -4.577999E-18  2.807028E-09  0.000000E+00  0.000000E+00  0.000000E+00  0.000000E+00  0.000000E+00  0.000000E+00  0.000000E+00  0.000000E+00  5.166252E-01 -8.688509E-10 -8.383036E-10  5.166252E-01                                                                                                                                                                                                                                                                                                                                                                                                                                                                                              
  7.600000E+02  1.250000E+02 -5.425000E+03  4.784949E-07 -6.617534E-15  3.358880E-16  4.784949E-07  2.807028E-09 -3.901835E-17  1.980465E-18  2.807028E-09  0.000000E+00  0.000000E+00  0.000000E+00  0.000000E+00  0.000000E+00  0.000000E+00  0.000000E+00  0.000000E+00  5.166252E-01 -7.144873E-09  3.626542E-10  5.166252E-01                                                                                                                                                                                                                                                                                                                                                                                                                                                                                              
  7.800000E+02  1.250000E+02 -5.425000E+03  4.784949E-07 -4.797798E-15  1.318316E-15  4.784949E-07  2.807028E-09 -2.828881E-17  7.773066E-18  2.807028E-09  0.000000E+00  0.000000E+00  0.000000E+00  0.000000E+00  0.000000E+00  0.000000E+00  0.000000E+00  0.000000E+00  5.166252E-01 -5.180126E-09  1.423370E-09  5.166252E-01                                                                                                                                                                                                                                                                                                                                                                                                                                                                                              
  8.000000E+02  1.250000E+02 -5.425000E+03  4.784949E-07 -7.255556E-16  1.000690E-15  4.784949E-07  2.807028E-09 -4.278026E-18  5.900273E-18  2.807028E-09  0.000000E+00  0.000000E+00  0.000000E+00  0.000000E+00  0.000000E+00  0.000000E+00  0.000000E+00  0.000000E+00  5.166252E-01 -7.833738E-10  1.080433E-09  5.166252E-01                                                                                                                                                                                                                                                                                                                                                                                                                                                                                              
  9.350000E+02  1.250000E+02 -5.425000E+03  4.784949E-07  1.140310E-15  5.396340E-16  4.784949E-07  2.807028E-09  6.723506E-18  3.181794E-18  2.807028E-09  0.000000E+00  0.000000E+00  0.000000E+00  0.000000E+00  0.000000E+00  0.000000E+00  0.000000E+00  0.000000E+00  5.166252E-01  1.231180E-09  5.826364E-10  5.166252E-01                                                                                                                                                                                                                                                                                                                                                                                                                                                                                              
  1.185000E+03  1.250000E+02 -5.425000E+03  4.784949E-07  1.664671E-15 -7.025235E-16  4.784949E-07  2.807028E-09  9.815244E-18 -4.142224E-18  2.807028E-09  0.000000E+00  0.000000E+00  0.000000E+00  0.000000E+00  0.000000E+00  0.000000E+00  0.000000E+00  0.000000E+00  5.166252E-01  1.797325E-09 -7.585063E-10  5.166252E-01                                                                                                                                                                                                                                                                                                                                                                                                                                                                                              
  1.435000E+03  1.250000E+02 -5.425000E+03  4.784949E-07 -2.123717E-16 -3.091166E-16  4.784949E-07  2.807028E-09 -1.252188E-18 -1.822616E-18  2.807028E-09  0.000000E+00  0.000000E+00  0.000000E+00  0.000000E+00  0.000000E+00  0.000000E+00  0.000000E+00  0.000000E+00  5.166252E-01 -2.292952E-10 -3.337496E-10  5.166252E-01                                                                                                                                                                                                                                                                                                                                                                                                                                                                                              
  1.250000E+02  1.250000E+02 -5.225000E+03  9.331705E-07  4.003584E-16  2.796157E-16  9.331705E-07  5.444640E-09  2.336764E-18  1.632028E-18  5.444640E-09  0.000000E+00  0.000000E+00  0.000000E+00  0.000000E+00  0.000000E+00  0.000000E+00  0.000000E+00  0.000000E+00  9.897286E-01  4.165847E-10  2.909484E-10  9.897286E-01                                                                                                                                                                                                                                                                                                                                                                                                                                                                                              
  3.750000E+02  1.250000E+02 -5.225000E+03  9.331705E-07  5.344136E-16 -1.016155E-16  9.331705E-07  5.444640E-09  3.119202E-18 -5.930975E-19  5.444640E-09  0.000000E+00  0.000000E+00  0.000000E+00  0.000000E+00  0.000000E+00  0.000000E+00  0.000000E+00  0.000000E+00  9.897286E-01  5.560732E-10 -1.057340E-10  9.897286E-01                                                                                                                                                                                                                                                                                                                                                                                                                                                                                              
  6.250000E+02  1.250000E+02 -5.225000E+03  9.331705E-07 -6.668719E-17 -8.024311E-16  9.331705E-07  5.444640E-09 -3.892319E-19 -4.683535E-18  5.444640E-09  0.000000E+00  0.000000E+00  0.000000E+00  0.000000E+00  0.000000E+00  0.000000E+00  0.000000E+00  0.000000E+00  9.897286E-01 -6.938999E-11 -8.349533E-10  9.897286E-01                                                                                                                                                                                                                                                                                                                                                                                                                                                                                              
  7.600000E+02  1.250000E+02 -5.225000E+03  9.331705E-07  1.162402E-15 -1.160848E-16  9.331705E-07  5.444640E-09  6.784571E-18 -6.775501E-19  5.444640E-09  0.000000E+00  0.000000E+00  0.000000E+00  0.000000E+00  0.000000E+00  0.000000E+00  0.000000E+00  0.000000E+00  9.897286E-01  1.209514E-09 -1.207897E-10  9.897286E-01                                                                                                                                                                                                                                                                                                                                                                                                                                                                                              
  7.800000E+02  1.250000E+02 -5.225000E+03  9.331705E-07  9.284720E-16 -2.326860E-16  9.331705E-07  5.444640E-09  5.419195E-18 -1.358114E-18  5.444640E-09  0.000000E+00  0.000000E+00  0.000000E+00  0.000000E+00  0.000000E+00  0.000000E+00  0.000000E+00  0.000000E+00  9.897286E-01  9.661025E-10 -2.421167E-10  9.897286E-01                                                                                                                                                                                                                                                                                                                                                                                                                                                                                              
  8.000000E+02  1.250000E+02 -5.225000E+03  9.331705E-07 -5.310848E-16 -1.668048E-16  9.331705E-07  5.444640E-09 -3.099773E-18 -9.735865E-19  5.444640E-09  0.000000E+00  0.000000E+00  0.000000E+00  0.000000E+00  0.000000E+00  0.000000E+00  0.000000E+00  0.000000E+00  9.897286E-01 -5.526094E-10 -1.735653E-10  9.897286E-01                                                                                                                                                                                                                                                                                                                                                                                                                                                                                              
  9.350000E+02  1.250000E+02 -5.225000E+03  9.331705E-07 -3.986872E-16 -1.274558E-16  9.331705E-07  5.444640E-09 -2.327010E-18 -7.439187E-19  5.444640E-09  0.000000E+00  0.000000E+00  0.000000E+00  0.000000E+00  0.000000E+00  0.000000E+00  0.000000E+00  0.000000E+00  9.897286E-01 -4.148458E-10 -1.326215E-10  9.897286E-01                                                                                                                                                                                                                                                                                                                                                                                                                                                                                              
  1.185000E+03  1.250000E+02 -5.225000E+03  9.331705E-07 -9.201065E-17  9.137032E-17  9.331705E-07  5.444640E-09 -5.370368E-19  5.332995E-19  5.444640E-09  0.000000E+00  0.000000E+00  0.000000E+00  0.000000E+00  0.000000E+00  0.000000E+00  0.000000E+00  0.000000E+00  9.897286E-01 -9.573980E-11  9.507352E-11  9.897286E-01                                                                                                                                                                                                                                                                                                                                                                                                                                                                                              
  1.435000E+03  1.250000E+02 -5.225000E+03  9.331705E-07  2.102643E-16  3.709757E-17  9.331705E-07  5.444640E-09  1.227246E-18  2.165267E-19  5.444640E-09  0.000000E+00  0.000000E+00  0.000000E+00  0.000000E+00  0.000000E+00  0.000000E+00  0.000000E+00  0.000000E+00  9.897286E-01  2.187862E-10  3.860112E-11  9.897286E-01                                                                                                                                                                                                                                                                                                                                                                                                                                                                                              
  1.250000E+02  1.250000E+02 -4.975000E+03  8.803560E-07  2.240063E-15 -8.604975E-16  8.803560E-07  5.077684E-09  1.291602E-17 -4.961559E-18  5.077684E-09  0.000000E+00  0.000000E+00  0.000000E+00  0.000000E+00  0.000000E+00  0.000000E+00  0.000000E+00  0.000000E+00  8.952855E-01  2.221654E-09 -8.534258E-10  8.952855E-01                                                                                                                                                                                                                                                                                                                                                                                                                                                                                              
  3.750000E+02  1.250000E+02 -4.975000E+03  8.803562E-07  7.037223E-15 -2.648488E-15  8.803562E-07  5.077685E-09  4.057606E-17 -1.527097E-17  5.077685E-09  0.000000E+00  0.000000E+00  0.000000E+00  0.000000E+00  0.000000E+00  0.000000E+00  0.000000E+00  0.000000E+00  8.952857E-01  6.979390E-09 -2.626722E-09  8.952857E-01                                                                                                                                                                                                                                                                                                                                                                                                                                                                                              
  6.250000E+02  1.250000E+02 -4.975000E+03  8.803566E-07  1.564548E-14 -9.698779E-14  8.803566E-07  5.077687E-09  9.021055E-17 -5.592237E-16  5.077687E-09  0.000000E+00  0.000000E+00  0.000000E+00  0.000000E+00  0.000000E+00  0.000000E+00  0.000000E+00  0.000000E+00  8.952861E-01  1.551690E-08 -9.619072E-08  8.952861E-01                                                                                                                                                                                                                                                                                                                                                                                                                                                                                              
  7.600000E+02  1.250000E+02 -4.975000E+03  8.803572E-07  1.635569E-14 -1.661972E-14  8.803572E-07  5.077691E-09  9.430555E-17 -9.582795E-17  5.077691E-09  0.000000E+00  0.000000E+00  0.000000E+00  0.000000E+00  0.000000E+00  0.000000E+00  0.000000E+00  0.000000E+00  8.952867E-01  1.622127E-08 -1.648314E-08  8.952867E-01                                                                                                                                                                                                                                                                                                                                                                                                                                                                                              
  7.800000E+02  1.250000E+02 -4.975000E+03  8.803573E-07  5.889924E-15 -9.393797E-15  8.803573E-07  5.077691E-09  3.396082E-17 -5.416387E-17  5.077691E-09  0.000000E+00  0.000000E+00  0.000000E+00  0.000000E+00  0.000000E+00  0.000000E+00  0.000000E+00  0.000000E+00  8.952868E-01  5.841519E-09 -9.316597E-09  8.952868E-01                                                                                                                                                                                                                                                                                                                                                                                                                                                                                              
  8.000000E+02  1.250000E+02 -4.975000E+03  8.803573E-07 -4.373553E-15 -6.056764E-15  8.803573E-07  5.077691E-09 -2.521755E-17 -3.492281E-17  5.077691E-09  0.000000E+00  0.000000E+00  0.000000E+00  0.000000E+00  0.000000E+00  0.000000E+00  0.000000E+00  0.000000E+00  8.952868E-01 -4.337610E-09 -6.006988E-09  8.952868E-01                                                                                                                                                                                                                                                                                                                                                                                                                                                                                              
  9.350000E+02  1.250000E+02 -4.975000E+03  8.803570E-07 -9.055879E-15 -1.158934E-15  8.803570E-07  5.077690E-09 -5.221546E-17 -6.682318E-18  5.077690E-09  0.000000E+00  0.000000E+00  0.000000E+00  0.000000E+00  0.000000E+00  0.000000E+00  0.000000E+00  0.000000E+00  8.952865E-01 -8.981456E-09 -1.149409E-09  8.952865E-01                                                                                                                                                                                                                                                                                                                                                                                                                                                                                              
  1.185000E+03  1.250000E+02 -4.975000E+03  8.803567E-07 -6.194257E-15 -3.870794E-16  8.803567E-07  5.077687E-09 -3.571558E-17 -2.231869E-18  5.077687E-09  0.000000E+00  0.000000E+00  0.000000E+00  0.000000E+00  0.000000E+00  0.000000E+00  0.000000E+00  0.000000E+00  8.952861E-01 -6.143352E-09 -3.838984E-10  8.952861E-01                                                                                                                                                                                                                                                                                                                                                                                                                                                                                              
  1.435000E+03  1.250000E+02 -4.975000E+03  8.803565E-07 -1.894487E-15 -4.726330E-16  8.803565E-07  5.077686E-09 -1.092346E-17 -2.725164E-18  5.077686E-09  0.000000E+00  0.000000E+00  0.000000E+00  0.000000E+00  0.000000E+00  0.000000E+00  0.000000E+00  0.000000E+00  8.952860E-01 -1.878918E-09 -4.687489E-10  8.952860E-01                                                                                                                                                                                                                                                                                                                                                                                                                                                                                              
  1.250000E+02  1.250000E+02 -4.725000E+03  2.068821E-06  2.165821E-13 -8.564168E-14  2.068821E-06  1.176856E-08  1.234300E-15 -4.880715E-16  1.176856E-08  0.000000E+00  0.000000E+00  0.000000E+00  0.000000E+00  0.000000E+00  0.000000E+00  0.000000E+00  0.000000E+00  1.972055E+00  2.042884E-07 -8.078046E-08  1.972055E+00                                                                                                                                                                                                                                                                                                                                                                                                                                                                                              
  3.750000E+02  1.250000E+02 -4.725000E+03  2.068829E-06  6.224625E-13 -2.462657E-13  2.068829E-06  1.176861E-08  3.547411E-15 -1.403467E-15  1.176861E-08  0.000000E+00  0.000000E+00  0.000000E+00  0.000000E+00  0.000000E+00  0.000000E+00  0.000000E+00  0.000000E+00  1.972062E+00  5.871301E-07 -2.322871E-07  1.972062E+00                                                                                                                                                                                                                                                                                                                                                                                                                                                                                              
  6.250000E+02  1.250000E+02 -4.725000E+03  2.068849E-06  1.487423E-12 -1.276149E-11  2.068849E-06  1.176871E-08  8.476819E-15 -7.272767E-14  1.176871E-08  0.000000E+00  0.000000E+00  0.000000E+00  0.000000E+00  0.000000E+00  0.000000E+00  0.000000E+00  0.000000E+00  1.972080E+00  1.402994E-06 -1.203712E-05  1.972080E+00                                                                                                                                                                                                                                                                                                                                                                                                                                                                                              
  7.600000E+02  1.250000E+02 -4.725000E+03  2.068877E-06  1.624695E-12 -1.628732E-12  2.068877E-06  1.176888E-08  9.259131E-15 -9.282138E-15  1.176888E-08  0.000000E+00  0.000000E+00  0.000000E+00  0.000000E+00  0.000000E+00  0.000000E+00  0.000000E+00  0.000000E+00  1.972107E+00  1.532474E-06 -1.536282E-06  1.972107E+00                                                                                                                                                                                                                                                                                                                                                                                                                                                                                              
  7.800000E+02  1.250000E+02 -4.725000E+03  2.068879E-06  5.751679E-13 -8.000849E-13  2.068879E-06  1.176889E-08  3.277879E-15 -4.559680E-15  1.176889E-08  0.000000E+00  0.000000E+00  0.000000E+00  0.000000E+00  0.000000E+00  0.000000E+00  0.000000E+00  0.000000E+00  1.972109E+00  5.425201E-07 -7.546702E-07  1.972109E+00                                                                                                                                                                                                                                                                                                                                                                                                                                                                                              
  8.000000E+02  1.250000E+02 -4.725000E+03  2.068880E-06 -4.401897E-13 -4.853075E-13  2.068880E-06  1.176889E-08 -2.508639E-15 -2.765765E-15  1.176889E-08  0.000000E+00  0.000000E+00  0.000000E+00  0.000000E+00  0.000000E+00  0.000000E+00  0.000000E+00  0.000000E+00  1.972110E+00 -4.152035E-07 -4.577603E-07  1.972110E+00                                                                                                                                                                                                                                                                                                                                                                                                                                                                                              
  9.350000E+02  1.250000E+02 -4.725000E+03  2.068868E-06 -8.207053E-13 -1.258353E-13  2.068868E-06  1.176883E-08 -4.677196E-15 -7.171347E-16  1.176883E-08  0.000000E+00  0.000000E+00  0.000000E+00  0.000000E+00  0.000000E+00  0.000000E+00  0.000000E+00  0.000000E+00  1.972099E+00 -7.741202E-07 -1.186926E-07  1.972099E+00                                                                                                                                                                                                                                                                                                                                                                                                                                                                                              
  1.185000E+03  1.250000E+02 -4.725000E+03  2.068858E-06 -5.141247E-13 -5.654240E-14  2.068858E-06  1.176877E-08 -2.929994E-15 -3.222348E-16  1.176877E-08  0.000000E+00  0.000000E+00  0.000000E+00  0.000000E+00  0.000000E+00  0.000000E+00  0.000000E+00  0.000000E+00  1.972089E+00 -4.849418E-07 -5.333292E-08  1.972089E+00                                                                                                                                                                                                                                                                                                                                                                                                                                                                                              