Title="TOUGHREACT V3.30-OMP flowvector.tec: Liq & Gas Fluxes (kg/s/m^2), Pore Velocities (m/s), & Heat Fluxes (J/s/m2)"                                                                                                                                                                                                                                                                                                                                                                                                                                                                                                                                                                                                                                                                                                         
Variables= "X(m)"     "Y(m)"      "Z(m)"     "FluxLiq"   "FluxLiq_X"   "FluxLiq_Y"   "FluxLiq_Z"   "PorVelLiq"  "PorVelLiqX"  "PorVelLiqY"  "PorVelLiqZ"     "FluxGas"   "FluxGas_X"   "FluxGas_Y"   "FluxGas_Z"   "PorVelGas"  "PorVelGasX"  "PorVelGasY"  "PorVelGasZ"    "HeatFlux"  "HeatFlux_X"  "HeatFlux_Y"  "HeatFlux_Z"                                                                                                                                                                                                                                                                                                                                                                                                                                                                                                
Zone T= "1.00000000E+10 sec" I=     9 J=    10 K=    23 F=Point
  1.250000E+02  1.250000E+02 -5.425000E+03  9.476709E-07  2.845975E-08 -4.955501E-09 -9.472305E-07  3.048591E-09  9.202581E-11 -1.602331E-11 -3.047159E-09  0.000000E+00  0.000000E+00  0.000000E+00  0.000000E+00  0.000000E+00  0.000000E+00  0.000000E+00  0.000000E+00  7.215513E-01  2.258755E-02 -3.933160E-03 -7.211870E-01                                                                                                                                                                                                                                                                                                                                                                                                                                                                                              
  3.750000E+02  1.250000E+02 -5.425000E+03  9.208587E-07  4.047826E-08 -5.227521E-09 -9.199538E-07  2.962871E-09  1.308929E-10 -1.690498E-11 -2.959930E-09  0.000000E+00  0.000000E+00  0.000000E+00  0.000000E+00  0.000000E+00  0.000000E+00  0.000000E+00  0.000000E+00  7.008411E-01  3.212695E-02 -4.149457E-03 -7.000921E-01                                                                                                                                                                                                                                                                                                                                                                                                                                                                                              
  6.250000E+02  1.250000E+02 -5.425000E+03  9.006296E-07 -2.459233E-08 -5.698141E-09 -9.002757E-07  2.898050E-09 -7.952730E-11 -1.842796E-11 -2.896900E-09  0.000000E+00  0.000000E+00  0.000000E+00  0.000000E+00  0.000000E+00  0.000000E+00  0.000000E+00  0.000000E+00  6.852213E-01 -1.952357E-02 -4.523433E-03 -6.849281E-01                                                                                                                                                                                                                                                                                                                                                                                                                                                                                              
  7.600000E+02  1.250000E+02 -5.425000E+03  9.066327E-07 -7.668966E-08 -6.006433E-09 -9.033635E-07  2.917210E-09 -2.480016E-10 -1.942346E-11 -2.906585E-09  0.000000E+00  0.000000E+00  0.000000E+00  0.000000E+00  0.000000E+00  0.000000E+00  0.000000E+00  0.000000E+00  6.899962E-01 -6.087897E-02 -4.768204E-03 -6.872887E-01                                                                                                                                                                                                                                                                                                                                                                                                                                                                                              
  7.800000E+02  1.250000E+02 -5.425000E+03  9.078622E-07 -8.354060E-08 -6.052365E-09 -9.039901E-07  2.921146E-09 -2.701523E-10 -1.957174E-11 -2.908561E-09  0.000000E+00  0.000000E+00  0.000000E+00  0.000000E+00  0.000000E+00  0.000000E+00  0.000000E+00  0.000000E+00  6.909818E-01 -6.631768E-02 -4.804672E-03 -6.877752E-01                                                                                                                                                                                                                                                                                                                                                                                                                                                                                              
  8.000000E+02  1.250000E+02 -5.425000E+03  9.093056E-07 -9.019696E-08 -6.098507E-09 -9.048006E-07  2.925771E-09 -2.916616E-10 -1.972069E-11 -2.911131E-09  0.000000E+00  0.000000E+00  0.000000E+00  0.000000E+00  0.000000E+00  0.000000E+00  0.000000E+00  0.000000E+00  6.921565E-01 -7.160216E-02 -4.841315E-03 -6.884260E-01                                                                                                                                                                                                                                                                                                                                                                                                                                                                                              
  9.350000E+02  1.250000E+02 -5.425000E+03  9.195877E-07 -1.235787E-07 -6.410879E-09 -9.112238E-07  2.958668E-09 -3.995142E-10 -2.072873E-11 -2.931497E-09  0.000000E+00  0.000000E+00  0.000000E+00  0.000000E+00  0.000000E+00  0.000000E+00  0.000000E+00  0.000000E+00  7.004268E-01 -9.809993E-02 -5.089337E-03 -6.935043E-01                                                                                                                                                                                                                                                                                                                                                                                                                                                                                              
  1.185000E+03  1.250000E+02 -5.425000E+03  9.482729E-07 -1.393960E-07 -6.947833E-09 -9.379456E-07  3.049903E-09 -4.505477E-10 -2.245791E-11 -3.016357E-09  0.000000E+00  0.000000E+00  0.000000E+00  0.000000E+00  0.000000E+00  0.000000E+00  0.000000E+00  0.000000E+00  7.226454E-01 -1.106521E-01 -5.515412E-03 -7.141023E-01                                                                                                                                                                                                                                                                                                                                                                                                                                                                                              
  1.435000E+03  1.250000E+02 -5.425000E+03  9.690833E-07 -6.255248E-08 -7.284963E-09 -9.670349E-07  3.115588E-09 -2.021499E-10 -2.354162E-11 -3.108934E-09  0.000000E+00  0.000000E+00  0.000000E+00  0.000000E+00  0.000000E+00  0.000000E+00  0.000000E+00  0.000000E+00  7.382815E-01 -4.965264E-02 -5.782768E-03 -7.365872E-01                                                                                                                                                                                                                                                                                                                                                                                                                                                                                              
  1.250000E+02  1.250000E+02 -5.225000E+03  3.511983E-06  4.905968E-08 -4.371434E-09 -3.511637E-06  1.117263E-08  1.574199E-10 -1.402681E-11 -1.117151E-08  0.000000E+00  0.000000E+00  0.000000E+00  0.000000E+00  0.000000E+00  0.000000E+00  0.000000E+00  0.000000E+00  2.578990E+00  3.736408E-02 -3.329217E-03 -2.578717E+00                                                                                                                                                                                                                                                                                                                                                                                                                                                                                              
  3.750000E+02  1.250000E+02 -5.225000E+03  3.387027E-06  7.627096E-08 -4.670300E-09 -3.386165E-06  1.077675E-08  2.447470E-10 -1.498794E-11 -1.077396E-08  0.000000E+00  0.000000E+00  0.000000E+00  0.000000E+00  0.000000E+00  0.000000E+00  0.000000E+00  0.000000E+00  2.474183E+00  5.807893E-02 -3.555216E-03 -2.473499E+00                                                                                                                                                                                                                                                                                                                                                                                                                                                                                              
  6.250000E+02  1.250000E+02 -5.225000E+03  3.301262E-06 -1.266105E-08 -5.163647E-09 -3.301234E-06  1.050489E-08 -4.063303E-11 -1.657246E-11 -1.050480E-08  0.000000E+00  0.000000E+00  0.000000E+00  0.000000E+00  0.000000E+00  0.000000E+00  0.000000E+00  0.000000E+00  2.403864E+00 -9.629327E-03 -3.929732E-03 -2.403842E+00                                                                                                                                                                                                                                                                                                                                                                                                                                                                                              
  7.600000E+02  1.250000E+02 -5.225000E+03  3.313531E-06 -8.469829E-08 -5.477037E-09 -3.312444E-06  1.054294E-08 -2.718152E-10 -1.757673E-11 -1.053942E-08  0.000000E+00  0.000000E+00  0.000000E+00  0.000000E+00  0.000000E+00  0.000000E+00  0.000000E+00  0.000000E+00  2.413310E+00 -6.445925E-02 -4.168299E-03 -2.412445E+00                                                                                                                                                                                                                                                                                                                                                                                                                                                                                              
  7.800000E+02  1.250000E+02 -5.225000E+03  3.316373E-06 -9.449714E-08 -5.523769E-09 -3.315021E-06  1.055186E-08 -3.032574E-10 -1.772646E-11 -1.054748E-08  0.000000E+00  0.000000E+00  0.000000E+00  0.000000E+00  0.000000E+00  0.000000E+00  0.000000E+00  0.000000E+00  2.415671E+00 -7.192110E-02 -4.203924E-03 -2.414596E+00                                                                                                                                                                                                                                                                                                                                                                                                                                                                                              
  8.000000E+02  1.250000E+02 -5.225000E+03  3.320691E-06 -1.039887E-07 -5.570877E-09 -3.319058E-06  1.056560E-08 -3.336989E-10 -1.787746E-11 -1.056031E-08  0.000000E+00  0.000000E+00  0.000000E+00  0.000000E+00  0.000000E+00  0.000000E+00  0.000000E+00  0.000000E+00  2.419720E+00 -7.915906E-02 -4.239985E-03 -2.418421E+00                                                                                                                                                                                                                                                                                                                                                                                                                                                                                              
  9.350000E+02  1.250000E+02 -5.225000E+03  3.351955E-06 -1.496797E-07 -5.889412E-09 -3.348606E-06  1.066461E-08 -4.801974E-10 -1.889801E-11 -1.065378E-08  0.000000E+00  0.000000E+00  0.000000E+00  0.000000E+00  0.000000E+00  0.000000E+00  0.000000E+00  0.000000E+00  2.447524E+00 -1.139780E-01 -4.483640E-03 -2.444865E+00                                                                                                                                                                                                                                                                                                                                                                                                                                                                                              
  1.185000E+03  1.250000E+02 -5.225000E+03  3.459445E-06 -1.787977E-07 -6.448415E-09 -3.454816E-06  1.100250E-08 -5.734639E-10 -2.068453E-11 -1.098753E-08  0.000000E+00  0.000000E+00  0.000000E+00  0.000000E+00  0.000000E+00  0.000000E+00  0.000000E+00  0.000000E+00  2.535336E+00 -1.361958E-01 -4.910954E-03 -2.531670E+00                                                                                                                                                                                                                                                                                                                                                                                                                                                                                              
  1.435000E+03  1.250000E+02 -5.225000E+03  3.585110E-06 -8.343539E-08 -6.815692E-09 -3.584132E-06  1.139849E-08 -2.675631E-10 -2.185636E-11 -1.139533E-08  0.000000E+00  0.000000E+00  0.000000E+00  0.000000E+00  0.000000E+00  0.000000E+00  0.000000E+00  0.000000E+00  2.640500E+00 -6.357081E-02 -5.192987E-03 -2.639729E+00                                                                                                                                                                                                                                                                                                                                                                                                                                                                                              
  1.250000E+02  1.250000E+02 -4.975000E+03  6.868198E-06  1.280801E-07 -2.822553E-09 -6.867003E-06  2.137933E-08  4.042852E-10 -8.912870E-12 -2.137551E-08  0.000000E+00  0.000000E+00  0.000000E+00  0.000000E+00  0.000000E+00  0.000000E+00  0.000000E+00  0.000000E+00  4.630496E+00  9.281047E-02 -2.044686E-03 -4.629565E+00                                                                                                                                                                                                                                                                                                                                                                                                                                                                                              
  3.750000E+02  1.250000E+02 -4.975000E+03  6.502395E-06  2.092467E-07 -3.219430E-09 -6.499027E-06  2.023135E-08  6.604570E-10 -1.016320E-11 -2.022056E-08  0.000000E+00  0.000000E+00  0.000000E+00  0.000000E+00  0.000000E+00  0.000000E+00  0.000000E+00  0.000000E+00  4.276663E+00  1.511985E-01 -2.315342E-03 -4.273989E+00                                                                                                                                                                                                                                                                                                                                                                                                                                                                                              
  6.250000E+02  1.250000E+02 -4.975000E+03  6.283557E-06  2.937573E-08 -3.785761E-09 -6.283488E-06  1.954621E-08  9.271481E-11 -1.194925E-11 -1.954598E-08  0.000000E+00  0.000000E+00  0.000000E+00  0.000000E+00  0.000000E+00  0.000000E+00  0.000000E+00  0.000000E+00  4.075933E+00  2.129394E-02 -2.710818E-03 -4.075876E+00                                                                                                                                                                                                                                                                                                                                                                                                                                                                                              
  7.600000E+02  1.250000E+02 -4.975000E+03  6.301153E-06 -1.141731E-07 -4.116912E-09 -6.300117E-06  1.959956E-08 -3.603402E-10 -1.299325E-11 -1.959625E-08  0.000000E+00  0.000000E+00  0.000000E+00  0.000000E+00  0.000000E+00  0.000000E+00  0.000000E+00  0.000000E+00  4.091104E+00 -8.178593E-02 -2.948678E-03 -4.090285E+00                                                                                                                                                                                                                                                                                                                                                                                                                                                                                              
  7.800000E+02  1.250000E+02 -4.975000E+03  6.307527E-06 -1.351833E-07 -4.166756E-09 -6.306076E-06  1.961942E-08 -4.266518E-10 -1.315051E-11 -1.961477E-08  0.000000E+00  0.000000E+00  0.000000E+00  0.000000E+00  0.000000E+00  0.000000E+00  0.000000E+00  0.000000E+00  4.097127E+00 -9.688835E-02 -2.984843E-03 -4.095980E+00                                                                                                                                                                                                                                                                                                                                                                                                                                                                                              
  8.000000E+02  1.250000E+02 -4.975000E+03  6.321721E-06 -1.554134E-07 -4.218306E-09 -6.319809E-06  1.966440E-08 -4.905012E-10 -1.331361E-11 -1.965828E-08  0.000000E+00  0.000000E+00  0.000000E+00  0.000000E+00  0.000000E+00  0.000000E+00  0.000000E+00  0.000000E+00  4.111838E+00 -1.115823E-01 -3.023287E-03 -4.110322E+00                                                                                                                                                                                                                                                                                                                                                                                                                                                                                              
  9.350000E+02  1.250000E+02 -4.975000E+03  6.415765E-06 -2.415682E-07 -4.564805E-09 -6.411214E-06  1.996055E-08 -7.623036E-10 -1.440889E-11 -1.994599E-08  0.000000E+00  0.000000E+00  0.000000E+00  0.000000E+00  0.000000E+00  0.000000E+00  0.000000E+00  0.000000E+00  4.205801E+00 -1.742067E-01 -3.280591E-03 -4.202190E+00                                                                                                                                                                                                                                                                                                                                                                                                                                                                                              
  1.185000E+03  1.250000E+02 -4.975000E+03  6.647248E-06 -3.227509E-07 -5.225468E-09 -6.639406E-06  2.068301E-08 -1.018401E-09 -1.649238E-11 -2.065792E-08  0.000000E+00  0.000000E+00  0.000000E+00  0.000000E+00  0.000000E+00  0.000000E+00  0.000000E+00  0.000000E+00  4.428209E+00 -2.339678E-01 -3.774265E-03 -4.422022E+00                                                                                                                                                                                                                                                                                                                                                                                                                                                                                              
  1.435000E+03  1.250000E+02 -4.975000E+03  7.005749E-06 -1.637949E-07 -5.752020E-09 -7.003832E-06  2.180645E-08 -5.168300E-10 -1.815603E-11 -2.180032E-08  0.000000E+00  0.000000E+00  0.000000E+00  0.000000E+00  0.000000E+00  0.000000E+00  0.000000E+00  0.000000E+00  4.784798E+00 -1.191469E-01 -4.183561E-03 -4.783312E+00                                                                                                                                                                                                                                                                                                                                                                                                                                                                                              
  1.250000E+02  1.250000E+02 -4.725000E+03  1.053633E-05  2.116930E-07 -5.884314E-10 -1.053420E-05  3.172689E-08  6.461875E-10 -1.799355E-12 -3.172031E-08  0.000000E+00  0.000000E+00  0.000000E+00  0.000000E+00  0.000000E+00  0.000000E+00  0.000000E+00  0.000000E+00  5.717718E+00  1.365298E-01 -3.788477E-04 -5.716087E+00                                                                                                                                                                                                                                                                                                                                                                                                                                                                                              
  3.750000E+02  1.250000E+02 -4.725000E+03  9.708368E-06  3.395744E-07 -1.013972E-09 -9.702428E-06  2.915400E-08  1.035909E-09 -3.092958E-12 -2.913559E-08  0.000000E+00  0.000000E+00  0.000000E+00  0.000000E+00  0.000000E+00  0.000000E+00  0.000000E+00  0.000000E+00  4.913820E+00  2.159053E-01 -6.287579E-04 -4.909074E+00                                                                                                                                                                                                                                                                                                                                                                                                                                                                                              
  6.250000E+02  1.250000E+02 -4.725000E+03  9.308915E-06  7.862729E-08 -1.453345E-09 -9.308583E-06  2.791569E-08  2.396697E-10 -4.427892E-12 -2.791467E-08  0.000000E+00  0.000000E+00  0.000000E+00  0.000000E+00  0.000000E+00  0.000000E+00  0.000000E+00  0.000000E+00  4.543158E+00  4.942277E-02 -8.826262E-04 -4.542889E+00                                                                                                                                                                                                                                                                                                                                                                                                                                                                                              
  7.600000E+02  1.250000E+02 -4.725000E+03  9.292240E-06 -1.154025E-07 -1.673910E-09 -9.291523E-06  2.786797E-08 -3.515808E-10 -5.099739E-12 -2.786575E-08  0.000000E+00  0.000000E+00  0.000000E+00  0.000000E+00  0.000000E+00  0.000000E+00  0.000000E+00  0.000000E+00  4.542989E+00 -7.022252E-02 -1.017891E-03 -4.542446E+00                                                                                                                                                                                                                                                                                                                                                                                                                                                                                              
  7.800000E+02  1.250000E+02 -4.725000E+03  9.298030E-06 -1.494010E-07 -1.708356E-09 -9.296830E-06  2.788654E-08 -4.551890E-10 -5.204842E-12 -2.788282E-08  0.000000E+00  0.000000E+00  0.000000E+00  0.000000E+00  0.000000E+00  0.000000E+00  0.000000E+00  0.000000E+00  4.550167E+00 -9.109899E-02 -1.039543E-03 -4.549255E+00                                                                                                                                                                                                                                                                                                                                                                                                                                                                                              
  8.000000E+02  1.250000E+02 -4.725000E+03  9.312161E-06 -1.841854E-07 -1.746370E-09 -9.310339E-06  2.793248E-08 -5.612856E-10 -5.321394E-12 -2.792683E-08  0.000000E+00  0.000000E+00  0.000000E+00  0.000000E+00  0.000000E+00  0.000000E+00  0.000000E+00  0.000000E+00  4.566382E+00 -1.131598E-01 -1.064836E-03 -4.564980E+00                                                                                                                                                                                                                                                                                                                                                                                                                                                                                              
  9.350000E+02  1.250000E+02 -4.725000E+03  9.591961E-06 -2.818143E-07 -2.008053E-09 -9.587820E-06  2.879266E-08 -8.593117E-10 -6.123382E-12 -2.877983E-08  0.000000E+00  0.000000E+00  0.000000E+00  0.000000E+00  0.000000E+00  0.000000E+00  0.000000E+00  0.000000E+00  4.808565E+00 -1.767003E-01 -1.239019E-03 -4.805317E+00                                                                                                                                                                                                                                                                                                                                                                                                                                                                                              
  1.185000E+03  1.250000E+02 -4.725000E+03  9.915986E-06 -4.182325E-07 -2.594435E-09 -9.907162E-06  2.981277E-08 -1.276862E-09 -7.921462E-12 -2.978542E-08  0.000000E+00  0.000000E+00  0.000000E+00  0.000000E+00  0.000000E+00  0.000000E+00  0.000000E+00  0.000000E+00  5.166866E+00 -2.703503E-01 -1.639932E-03 -5.159788E+00                                                                                                                                                                                                                                                                                                                                                                                                                                                                                              