Title="TOUGHREACT V3.30-OMP flowvector.tec: Liq & Gas Fluxes (kg/s/m^2), Pore Velocities (m/s), & Heat Fluxes (J/s/m2)"                                                                                                                                                                                                                                                                                                                                                                                                                                                                                                                                                                                                                                                                                                         
Variables= "X(m)"     "Y(m)"      "Z(m)"     "FluxLiq"   "FluxLiq_X"   "FluxLiq_Y"   "FluxLiq_Z"   "PorVelLiq"  "PorVelLiqX"  "PorVelLiqY"  "PorVelLiqZ"     "FluxGas"   "FluxGas_X"   "FluxGas_Y"   "FluxGas_Z"   "PorVelGas"  "PorVelGasX"  "PorVelGasY"  "PorVelGasZ"    "HeatFlux"  "HeatFlux_X"  "HeatFlux_Y"  "HeatFlux_Z"                                                                                                                                                                                                                                                                                                                                                                                                                                                                                                
Zone T= "1.33000000E+10 sec" I=     9 J=    10 K=    23 F=Point
  1.250000E+02  1.250000E+02 -5.425000E+03  9.418596E-07  2.961883E-08 -5.456060E-09 -9.413780E-07  2.675302E-09  8.458260E-11 -1.558034E-11 -2.673919E-09  0.000000E+00  0.000000E+00  0.000000E+00  0.000000E+00  0.000000E+00  0.000000E+00  0.000000E+00  0.000000E+00  7.518195E-01  2.472773E-02 -4.555271E-03 -7.513989E-01                                                                                                                                                                                                                                                                                                                                                                                                                                                                                              
  3.750000E+02  1.250000E+02 -5.425000E+03  9.137272E-07  4.174381E-08 -5.747979E-09 -9.127550E-07  2.595819E-09  1.192124E-10 -1.641612E-11 -2.593028E-09  0.000000E+00  0.000000E+00  0.000000E+00  0.000000E+00  0.000000E+00  0.000000E+00  0.000000E+00  0.000000E+00  7.287457E-01  3.485134E-02 -4.799541E-03 -7.278961E-01                                                                                                                                                                                                                                                                                                                                                                                                                                                                                              
  6.250000E+02  1.250000E+02 -5.425000E+03  8.926694E-07 -2.678202E-08 -6.251382E-09 -8.922456E-07  2.536208E-09 -7.648852E-11 -1.785493E-11 -2.534992E-09  0.000000E+00  0.000000E+00  0.000000E+00  0.000000E+00  0.000000E+00  0.000000E+00  0.000000E+00  0.000000E+00  7.115685E-01 -2.236661E-02 -5.220461E-03 -7.111977E-01                                                                                                                                                                                                                                                                                                                                                                                                                                                                                              
  7.600000E+02  1.250000E+02 -5.425000E+03  8.992743E-07 -8.144604E-08 -6.579551E-09 -8.955543E-07  2.554838E-09 -2.326076E-10 -1.879065E-11 -2.544158E-09  0.000000E+00  0.000000E+00  0.000000E+00  0.000000E+00  0.000000E+00  0.000000E+00  0.000000E+00  0.000000E+00  7.171050E-01 -6.801351E-02 -5.494533E-03 -7.138512E-01                                                                                                                                                                                                                                                                                                                                                                                                                                                                                              
  7.800000E+02  1.250000E+02 -5.425000E+03  9.006226E-07 -8.861902E-08 -6.628426E-09 -8.962275E-07  2.558653E-09 -2.530894E-10 -1.892997E-11 -2.546035E-09  0.000000E+00  0.000000E+00  0.000000E+00  0.000000E+00  0.000000E+00  0.000000E+00  0.000000E+00  0.000000E+00  7.182495E-01 -7.400388E-02 -5.535354E-03 -7.144055E-01                                                                                                                                                                                                                                                                                                                                                                                                                                                                                              
  8.000000E+02  1.250000E+02 -5.425000E+03  9.022118E-07 -9.558178E-08 -6.677512E-09 -8.971096E-07  2.563158E-09 -2.729587E-10 -1.906989E-11 -2.548511E-09  0.000000E+00  0.000000E+00  0.000000E+00  0.000000E+00  0.000000E+00  0.000000E+00  0.000000E+00  0.000000E+00  7.196325E-01 -7.981910E-02 -5.576371E-03 -7.151705E-01                                                                                                                                                                                                                                                                                                                                                                                                                                                                                              
  9.350000E+02  1.250000E+02 -5.425000E+03  9.133323E-07 -1.302509E-07 -7.009617E-09 -9.039698E-07  2.594608E-09 -3.718763E-10 -2.001621E-11 -2.567742E-09  0.000000E+00  0.000000E+00  0.000000E+00  0.000000E+00  0.000000E+00  0.000000E+00  0.000000E+00  0.000000E+00  7.291244E-01 -1.087670E-01 -5.853791E-03 -7.209423E-01                                                                                                                                                                                                                                                                                                                                                                                                                                                                                              
  1.185000E+03  1.250000E+02 -5.425000E+03  9.433836E-07 -1.463784E-07 -7.576312E-09 -9.319274E-07  2.679040E-09 -4.178211E-10 -2.162727E-11 -2.646170E-09  0.000000E+00  0.000000E+00  0.000000E+00  0.000000E+00  0.000000E+00  0.000000E+00  0.000000E+00  0.000000E+00  7.537094E-01 -1.222277E-01 -6.326673E-03 -7.437057E-01                                                                                                                                                                                                                                                                                                                                                                                                                                                                                              
  1.435000E+03  1.250000E+02 -5.425000E+03  9.646703E-07 -6.562928E-08 -7.930340E-09 -9.624026E-07  2.738382E-09 -1.873033E-10 -2.263173E-11 -2.731875E-09  0.000000E+00  0.000000E+00  0.000000E+00  0.000000E+00  0.000000E+00  0.000000E+00  0.000000E+00  0.000000E+00  7.707086E-01 -5.479917E-02 -6.621870E-03 -7.687295E-01                                                                                                                                                                                                                                                                                                                                                                                                                                                                                              
  1.250000E+02  1.250000E+02 -5.225000E+03  3.494125E-06  5.094759E-08 -4.830792E-09 -3.493750E-06  9.807636E-09  1.442987E-10 -1.368261E-11 -9.806565E-09  0.000000E+00  0.000000E+00  0.000000E+00  0.000000E+00  0.000000E+00  0.000000E+00  0.000000E+00  0.000000E+00  2.668450E+00  4.068160E-02 -3.857135E-03 -2.668138E+00                                                                                                                                                                                                                                                                                                                                                                                                                                                                                              
  3.750000E+02  1.250000E+02 -5.225000E+03  3.363558E-06  7.878450E-08 -5.147478E-09 -3.362631E-06  9.441703E-09  2.231504E-10 -1.458099E-11 -9.439055E-09  0.000000E+00  0.000000E+00  0.000000E+00  0.000000E+00  0.000000E+00  0.000000E+00  0.000000E+00  0.000000E+00  2.551274E+00  6.288965E-02 -4.106375E-03 -2.550496E+00                                                                                                                                                                                                                                                                                                                                                                                                                                                                                              
  6.250000E+02  1.250000E+02 -5.225000E+03  3.274312E-06 -1.446599E-08 -5.671369E-09 -3.274276E-06  9.191757E-09 -4.097590E-11 -1.606584E-11 -9.191652E-09  0.000000E+00  0.000000E+00  0.000000E+00  0.000000E+00  0.000000E+00  0.000000E+00  0.000000E+00  0.000000E+00  2.474093E+00 -1.152295E-02 -4.522199E-03 -2.474063E+00                                                                                                                                                                                                                                                                                                                                                                                                                                                                                              
  7.600000E+02  1.250000E+02 -5.225000E+03  3.287448E-06 -8.978226E-08 -6.003687E-09 -3.286216E-06  9.227726E-09 -2.543158E-10 -1.700565E-11 -9.224206E-09  0.000000E+00  0.000000E+00  0.000000E+00  0.000000E+00  0.000000E+00  0.000000E+00  0.000000E+00  0.000000E+00  2.484672E+00 -7.159149E-02 -4.787284E-03 -2.483636E+00                                                                                                                                                                                                                                                                                                                                                                                                                                                                                              
  7.800000E+02  1.250000E+02 -5.225000E+03  3.290540E-06 -1.000162E-07 -6.053272E-09 -3.289014E-06  9.236314E-09 -2.833003E-10 -1.714588E-11 -9.231953E-09  0.000000E+00  0.000000E+00  0.000000E+00  0.000000E+00  0.000000E+00  0.000000E+00  0.000000E+00  0.000000E+00  2.487408E+00 -7.976045E-02 -4.826940E-03 -2.486124E+00                                                                                                                                                                                                                                                                                                                                                                                                                                                                                              
  8.000000E+02  1.250000E+02 -5.225000E+03  3.295387E-06 -1.099020E-07 -6.103378E-09 -3.293549E-06  9.249988E-09 -3.112862E-10 -1.728769E-11 -9.244732E-09  0.000000E+00  0.000000E+00  0.000000E+00  0.000000E+00  0.000000E+00  0.000000E+00  0.000000E+00  0.000000E+00  2.492306E+00 -8.766805E-02 -4.867315E-03 -2.490759E+00                                                                                                                                                                                                                                                                                                                                                                                                                                                                                              
  9.350000E+02  1.250000E+02 -5.225000E+03  3.328563E-06 -1.571546E-07 -6.441338E-09 -3.324844E-06  9.342847E-09 -4.450126E-10 -1.824357E-11 -9.332225E-09  0.000000E+00  0.000000E+00  0.000000E+00  0.000000E+00  0.000000E+00  0.000000E+00  0.000000E+00  0.000000E+00  2.523412E+00 -1.254297E-01 -5.138961E-03 -2.520288E+00                                                                                                                                                                                                                                                                                                                                                                                                                                                                                              
  1.185000E+03  1.250000E+02 -5.225000E+03  3.440721E-06 -1.869138E-07 -7.029042E-09 -3.435633E-06  9.654433E-09 -5.291519E-10 -1.990143E-11 -9.639900E-09  0.000000E+00  0.000000E+00  0.000000E+00  0.000000E+00  0.000000E+00  0.000000E+00  0.000000E+00  0.000000E+00  2.620542E+00 -1.492768E-01 -5.611282E-03 -2.616281E+00                                                                                                                                                                                                                                                                                                                                                                                                                                                                                              
  1.435000E+03  1.250000E+02 -5.225000E+03  3.571513E-06 -8.712431E-08 -7.414774E-09 -3.570443E-06  1.001927E-08 -2.466134E-10 -2.098841E-11 -1.001621E-08  0.000000E+00  0.000000E+00  0.000000E+00  0.000000E+00  0.000000E+00  0.000000E+00  0.000000E+00  0.000000E+00  2.738760E+00 -6.961516E-02 -5.924544E-03 -2.737869E+00                                                                                                                                                                                                                                                                                                                                                                                                                                                                                              
  1.250000E+02  1.250000E+02 -4.975000E+03  6.846073E-06  1.288428E-07 -3.172914E-09 -6.844860E-06  1.876113E-08  3.584259E-10 -8.831201E-12 -1.875771E-08  0.000000E+00  0.000000E+00  0.000000E+00  0.000000E+00  0.000000E+00  0.000000E+00  0.000000E+00  0.000000E+00  4.694146E+00  9.680372E-02 -2.383008E-03 -4.693147E+00                                                                                                                                                                                                                                                                                                                                                                                                                                                                                              
  3.750000E+02  1.250000E+02 -4.975000E+03  6.470454E-06  2.109945E-07 -3.567652E-09 -6.467012E-06  1.772273E-08  5.869019E-10 -9.924863E-12 -1.771301E-08  0.000000E+00  0.000000E+00  0.000000E+00  0.000000E+00  0.000000E+00  0.000000E+00  0.000000E+00  0.000000E+00  4.324947E+00  1.579498E-01 -2.654657E-03 -4.322061E+00                                                                                                                                                                                                                                                                                                                                                                                                                                                                                              
  6.250000E+02  1.250000E+02 -4.975000E+03  6.242117E-06  2.782682E-08 -4.149957E-09 -6.242054E-06  1.709398E-08  7.739741E-11 -1.154214E-11 -1.709380E-08  0.000000E+00  0.000000E+00  0.000000E+00  0.000000E+00  0.000000E+00  0.000000E+00  0.000000E+00  0.000000E+00  4.114518E+00  2.092126E-02 -3.071971E-03 -4.114464E+00                                                                                                                                                                                                                                                                                                                                                                                                                                                                                              
  7.600000E+02  1.250000E+02 -4.975000E+03  6.261975E-06 -1.194366E-07 -4.494727E-09 -6.260834E-06  1.714701E-08 -3.321548E-10 -1.249982E-11 -1.714379E-08  0.000000E+00  0.000000E+00  0.000000E+00  0.000000E+00  0.000000E+00  0.000000E+00  0.000000E+00  0.000000E+00  4.131724E+00 -8.845339E-02 -3.328194E-03 -4.130776E+00                                                                                                                                                                                                                                                                                                                                                                                                                                                                                              
  7.800000E+02  1.250000E+02 -4.975000E+03  6.269129E-06 -1.408050E-07 -4.546795E-09 -6.267546E-06  1.716664E-08 -3.915848E-10 -1.264462E-11 -1.716217E-08  0.000000E+00  0.000000E+00  0.000000E+00  0.000000E+00  0.000000E+00  0.000000E+00  0.000000E+00  0.000000E+00  4.138555E+00 -1.043518E-01 -3.367439E-03 -4.137237E+00                                                                                                                                                                                                                                                                                                                                                                                                                                                                                              
  8.000000E+02  1.250000E+02 -4.975000E+03  6.285040E-06 -1.612938E-07 -4.601157E-09 -6.282969E-06  1.721105E-08 -4.485727E-10 -1.279639E-11 -1.720519E-08  0.000000E+00  0.000000E+00  0.000000E+00  0.000000E+00  0.000000E+00  0.000000E+00  0.000000E+00  0.000000E+00  4.155146E+00 -1.197784E-01 -3.409952E-03 -4.153418E+00                                                                                                                                                                                                                                                                                                                                                                                                                                                                                              
  9.350000E+02  1.250000E+02 -4.975000E+03  6.382623E-06 -2.482432E-07 -4.962927E-09 -6.377791E-06  1.748099E-08 -6.903201E-10 -1.380458E-11 -1.746735E-08  0.000000E+00  0.000000E+00  0.000000E+00  0.000000E+00  0.000000E+00  0.000000E+00  0.000000E+00  0.000000E+00  4.252055E+00 -1.853391E-01 -3.689631E-03 -4.248012E+00                                                                                                                                                                                                                                                                                                                                                                                                                                                                                              
  1.185000E+03  1.250000E+02 -4.975000E+03  6.624858E-06 -3.273432E-07 -5.640830E-09 -6.616763E-06  1.814645E-08 -9.103128E-10 -1.569011E-11 -1.812359E-08  0.000000E+00  0.000000E+00  0.000000E+00  0.000000E+00  0.000000E+00  0.000000E+00  0.000000E+00  0.000000E+00  4.487228E+00 -2.460869E-01 -4.219899E-03 -4.480473E+00                                                                                                                                                                                                                                                                                                                                                                                                                                                                                              
  1.435000E+03  1.250000E+02 -4.975000E+03  6.990098E-06 -1.647004E-07 -6.180007E-09 -6.988155E-06  1.915627E-08 -4.580567E-10 -1.719619E-11 -1.915079E-08  0.000000E+00  0.000000E+00  0.000000E+00  0.000000E+00  0.000000E+00  0.000000E+00  0.000000E+00  0.000000E+00  4.861032E+00 -1.244030E-01 -4.667163E-03 -4.859438E+00                                                                                                                                                                                                                                                                                                                                                                                                                                                                                              
  1.250000E+02  1.250000E+02 -4.725000E+03  1.051622E-05  2.050578E-07 -7.270209E-10 -1.051422E-05  2.778991E-08  5.495893E-10 -1.951859E-12 -2.778447E-08  0.000000E+00  0.000000E+00  0.000000E+00  0.000000E+00  0.000000E+00  0.000000E+00  0.000000E+00  0.000000E+00  5.684525E+00  1.327836E-01 -4.700301E-04 -5.682974E+00                                                                                                                                                                                                                                                                                                                                                                                                                                                                                              
  3.750000E+02  1.250000E+02 -4.725000E+03  9.689418E-06  3.350787E-07 -1.096999E-09 -9.683623E-06  2.554080E-08  8.975526E-10 -2.938360E-12 -2.552503E-08  0.000000E+00  0.000000E+00  0.000000E+00  0.000000E+00  0.000000E+00  0.000000E+00  0.000000E+00  0.000000E+00  4.907880E+00  2.137688E-01 -6.826774E-04 -4.903223E+00                                                                                                                                                                                                                                                                                                                                                                                                                                                                                              
  6.250000E+02  1.250000E+02 -4.725000E+03  9.262132E-06  7.837262E-08 -1.530392E-09 -9.261801E-06  2.438329E-08  2.097774E-10 -4.094931E-12 -2.438239E-08  0.000000E+00  0.000000E+00  0.000000E+00  0.000000E+00  0.000000E+00  0.000000E+00  0.000000E+00  0.000000E+00  4.527628E+00  4.946066E-02 -9.328014E-04 -4.527357E+00                                                                                                                                                                                                                                                                                                                                                                                                                                                                                              
  7.600000E+02  1.250000E+02 -4.725000E+03  9.247139E-06 -1.206944E-07 -1.748703E-09 -9.246351E-06  2.434595E-08 -3.229286E-10 -4.678881E-12 -2.434381E-08  0.000000E+00  0.000000E+00  0.000000E+00  0.000000E+00  0.000000E+00  0.000000E+00  0.000000E+00  0.000000E+00  4.528685E+00 -7.371702E-02 -1.067343E-03 -4.528084E+00                                                                                                                                                                                                                                                                                                                                                                                                                                                                                              
  7.800000E+02  1.250000E+02 -4.725000E+03  9.253864E-06 -1.557225E-07 -1.782934E-09 -9.252553E-06  2.436477E-08 -4.166762E-10 -4.770611E-12 -2.436120E-08  0.000000E+00  0.000000E+00  0.000000E+00  0.000000E+00  0.000000E+00  0.000000E+00  0.000000E+00  0.000000E+00  4.536461E+00 -9.532106E-02 -1.089040E-03 -4.535459E+00                                                                                                                                                                                                                                                                                                                                                                                                                                                                                              
  8.000000E+02  1.250000E+02 -4.725000E+03  9.269817E-06 -1.916242E-07 -1.821092E-09 -9.267836E-06  2.441006E-08 -5.128280E-10 -4.873386E-12 -2.440468E-08  0.000000E+00  0.000000E+00  0.000000E+00  0.000000E+00  0.000000E+00  0.000000E+00  0.000000E+00  0.000000E+00  4.553980E+00 -1.181568E-01 -1.114778E-03 -4.552447E+00                                                                                                                                                                                                                                                                                                                                                                                                                                                                                              
  9.350000E+02  1.250000E+02 -4.725000E+03  9.565281E-06 -2.862112E-07 -2.080012E-09 -9.560998E-06  2.520381E-08 -7.663224E-10 -5.569815E-12 -2.519215E-08  0.000000E+00  0.000000E+00  0.000000E+00  0.000000E+00  0.000000E+00  0.000000E+00  0.000000E+00  0.000000E+00  4.800136E+00 -1.800620E-01 -1.287898E-03 -4.796758E+00                                                                                                                                                                                                                                                                                                                                                                                                                                                                                              
  1.185000E+03  1.250000E+02 -4.725000E+03  9.916676E-06 -4.036219E-07 -2.631465E-09 -9.908459E-06  2.616891E-08 -1.081904E-09 -7.054353E-12 -2.614653E-08  0.000000E+00  0.000000E+00  0.000000E+00  0.000000E+00  0.000000E+00  0.000000E+00  0.000000E+00  0.000000E+00  5.167592E+00 -2.619174E-01 -1.669551E-03 -5.160950E+00                                                                                                                                                                                                                                                                                                                                                                                                                                                                                              