Title="TOUGHREACT V3.30-OMP flowvector.tec: Liq & Gas Fluxes (kg/s/m^2), Pore Velocities (m/s), & Heat Fluxes (J/s/m2)"                                                                                                                                                                                                                                                                                                                                                                                                                                                                                                                                                                                                                                                                                                         
Variables= "X(m)"     "Y(m)"      "Z(m)"     "FluxLiq"   "FluxLiq_X"   "FluxLiq_Y"   "FluxLiq_Z"   "PorVelLiq"  "PorVelLiqX"  "PorVelLiqY"  "PorVelLiqZ"     "FluxGas"   "FluxGas_X"   "FluxGas_Y"   "FluxGas_Z"   "PorVelGas"  "PorVelGasX"  "PorVelGasY"  "PorVelGasZ"    "HeatFlux"  "HeatFlux_X"  "HeatFlux_Y"  "HeatFlux_Z"                                                                                                                                                                                                                                                                                                                                                                                                                                                                                                
Zone T= "1.67000000E+10 sec" I=     9 J=    10 K=    23 F=Point
  1.250000E+02  1.250000E+02 -5.425000E+03  9.359392E-07  3.090019E-08 -6.042931E-09 -9.354095E-07  2.373909E-09  7.881718E-11 -1.541313E-11 -2.372550E-09  0.000000E+00  0.000000E+00  0.000000E+00  0.000000E+00  0.000000E+00  0.000000E+00  0.000000E+00  0.000000E+00  7.799492E-01  2.704269E-02 -5.288792E-03 -7.794623E-01                                                                                                                                                                                                                                                                                                                                                                                                                                                                                              
  3.750000E+02  1.250000E+02 -5.425000E+03  9.062951E-07  4.304179E-08 -6.356020E-09 -9.052501E-07  2.299057E-09  1.097910E-10 -1.621394E-11 -2.296377E-09  0.000000E+00  0.000000E+00  0.000000E+00  0.000000E+00  0.000000E+00  0.000000E+00  0.000000E+00  0.000000E+00  7.542733E-01  3.766945E-02 -5.563469E-03 -7.533116E-01                                                                                                                                                                                                                                                                                                                                                                                                                                                                                              
  6.250000E+02  1.250000E+02 -5.425000E+03  8.842679E-07 -2.964143E-08 -6.894609E-09 -8.837440E-07  2.243351E-09 -7.561349E-11 -1.758899E-11 -2.242008E-09  0.000000E+00  0.000000E+00  0.000000E+00  0.000000E+00  0.000000E+00  0.000000E+00  0.000000E+00  0.000000E+00  7.354053E-01 -2.594992E-02 -6.035673E-03 -7.349225E-01                                                                                                                                                                                                                                                                                                                                                                                                                                                                                              
  7.600000E+02  1.250000E+02 -5.425000E+03  8.916066E-07 -8.739957E-08 -7.244501E-09 -8.872830E-07  2.261853E-09 -2.229515E-10 -1.847992E-11 -2.250762E-09  0.000000E+00  0.000000E+00  0.000000E+00  0.000000E+00  0.000000E+00  0.000000E+00  0.000000E+00  0.000000E+00  7.418683E-01 -7.650935E-02 -6.341975E-03 -7.378853E-01                                                                                                                                                                                                                                                                                                                                                                                                                                                                                              
  7.800000E+02  1.250000E+02 -5.425000E+03  8.930996E-07 -9.496888E-08 -7.296600E-09 -8.880059E-07  2.265630E-09 -2.422563E-10 -1.861255E-11 -2.252564E-09  0.000000E+00  0.000000E+00  0.000000E+00  0.000000E+00  0.000000E+00  0.000000E+00  0.000000E+00  0.000000E+00  7.432060E-01 -8.313631E-02 -6.387594E-03 -7.385138E-01                                                                                                                                                                                                                                                                                                                                                                                                                                                                                              
  8.000000E+02  1.250000E+02 -5.425000E+03  8.948619E-07 -1.023111E-07 -7.348924E-09 -8.889636E-07  2.270099E-09 -2.609693E-10 -1.874575E-11 -2.254971E-09  0.000000E+00  0.000000E+00  0.000000E+00  0.000000E+00  0.000000E+00  0.000000E+00  0.000000E+00  0.000000E+00  7.448378E-01 -8.956513E-02 -6.433449E-03 -7.394052E-01                                                                                                                                                                                                                                                                                                                                                                                                                                                                                              
  9.350000E+02  1.250000E+02 -5.425000E+03  9.069741E-07 -1.387347E-07 -7.702722E-09 -8.962674E-07  2.300719E-09 -3.537865E-10 -1.964602E-11 -2.273270E-09  0.000000E+00  0.000000E+00  0.000000E+00  0.000000E+00  0.000000E+00  0.000000E+00  0.000000E+00  0.000000E+00  7.557433E-01 -1.214458E-01 -6.743324E-03 -7.458910E-01                                                                                                                                                                                                                                                                                                                                                                                                                                                                                              
  1.185000E+03  1.250000E+02 -5.425000E+03  9.388171E-07 -1.553805E-07 -8.303065E-09 -9.258323E-07  2.380643E-09 -3.961330E-10 -2.116971E-11 -2.347358E-09  0.000000E+00  0.000000E+00  0.000000E+00  0.000000E+00  0.000000E+00  0.000000E+00  0.000000E+00  0.000000E+00  7.831160E-01 -1.360087E-01 -7.268348E-03 -7.711806E-01                                                                                                                                                                                                                                                                                                                                                                                                                                                                                              
  1.435000E+03  1.250000E+02 -5.425000E+03  9.606381E-07 -6.960446E-08 -8.676599E-09 -9.580739E-07  2.434968E-09 -1.774237E-10 -2.211571E-11 -2.428394E-09  0.000000E+00  0.000000E+00  0.000000E+00  0.000000E+00  0.000000E+00  0.000000E+00  0.000000E+00  0.000000E+00  8.015325E-01 -6.092438E-02 -7.594820E-03 -7.991777E-01                                                                                                                                                                                                                                                                                                                                                                                                                                                                                              
  1.250000E+02  1.250000E+02 -5.225000E+03  3.476692E-06  5.310391E-08 -5.363440E-09 -3.476282E-06  8.706130E-09  1.342532E-10 -1.356020E-11 -8.705084E-09  0.000000E+00  0.000000E+00  0.000000E+00  0.000000E+00  0.000000E+00  0.000000E+00  0.000000E+00  0.000000E+00  2.744870E+00  4.427108E-02 -4.470888E-03 -2.744509E+00                                                                                                                                                                                                                                                                                                                                                                                                                                                                                              
  3.750000E+02  1.250000E+02 -5.225000E+03  3.339570E-06  8.162983E-08 -5.699523E-09 -3.338567E-06  8.362788E-09  2.063764E-10 -1.441058E-11 -8.360228E-09  0.000000E+00  0.000000E+00  0.000000E+00  0.000000E+00  0.000000E+00  0.000000E+00  0.000000E+00  0.000000E+00  2.615988E+00  6.802039E-02 -4.744757E-03 -2.615099E+00                                                                                                                                                                                                                                                                                                                                                                                                                                                                                              
  6.250000E+02  1.250000E+02 -5.225000E+03  3.246042E-06 -1.675644E-08 -6.257399E-09 -3.245993E-06  8.128971E-09 -4.236340E-11 -1.582160E-11 -8.128846E-09  0.000000E+00  0.000000E+00  0.000000E+00  0.000000E+00  0.000000E+00  0.000000E+00  0.000000E+00  0.000000E+00  2.532062E+00 -1.392259E-02 -5.205794E-03 -2.532018E+00                                                                                                                                                                                                                                                                                                                                                                                                                                                                                              
  7.600000E+02  1.250000E+02 -5.225000E+03  3.260199E-06 -9.600513E-08 -6.611208E-09 -3.258778E-06  8.163571E-09 -2.427259E-10 -1.671453E-11 -8.159945E-09  0.000000E+00  0.000000E+00  0.000000E+00  0.000000E+00  0.000000E+00  0.000000E+00  0.000000E+00  0.000000E+00  2.543879E+00 -7.987312E-02 -5.500284E-03 -2.542619E+00                                                                                                                                                                                                                                                                                                                                                                                                                                                                                              
  7.800000E+02  1.250000E+02 -5.225000E+03  3.263575E-06 -1.067548E-07 -6.664052E-09 -3.261822E-06  8.171953E-09 -2.699005E-10 -1.684792E-11 -8.167477E-09  0.000000E+00  0.000000E+00  0.000000E+00  0.000000E+00  0.000000E+00  0.000000E+00  0.000000E+00  0.000000E+00  2.547017E+00 -8.883033E-02 -5.544452E-03 -2.545462E+00                                                                                                                                                                                                                                                                                                                                                                                                                                                                                              
  8.000000E+02  1.250000E+02 -5.225000E+03  3.268943E-06 -1.171163E-07 -6.717610E-09 -3.266837E-06  8.185500E-09 -2.960819E-10 -1.698329E-11 -8.180126E-09  0.000000E+00  0.000000E+00  0.000000E+00  0.000000E+00  0.000000E+00  0.000000E+00  0.000000E+00  0.000000E+00  2.552736E+00 -9.748711E-02 -5.589727E-03 -2.550868E+00                                                                                                                                                                                                                                                                                                                                                                                                                                                                                              
  9.350000E+02  1.250000E+02 -5.225000E+03  3.303978E-06 -1.666455E-07 -7.077720E-09 -3.299766E-06  8.273035E-09 -4.211919E-10 -1.789250E-11 -8.262287E-09  0.000000E+00  0.000000E+00  0.000000E+00  0.000000E+00  0.000000E+00  0.000000E+00  0.000000E+00  0.000000E+00  2.586735E+00 -1.388199E-01 -5.892577E-03 -2.583001E+00                                                                                                                                                                                                                                                                                                                                                                                                                                                                                              
  1.185000E+03  1.250000E+02 -5.225000E+03  3.422506E-06 -1.975020E-07 -7.699914E-09 -3.416794E-06  8.567037E-09 -4.990656E-10 -1.945905E-11 -8.552467E-09  0.000000E+00  0.000000E+00  0.000000E+00  0.000000E+00  0.000000E+00  0.000000E+00  0.000000E+00  0.000000E+00  2.693713E+00 -1.646847E-01 -6.416182E-03 -2.688667E+00                                                                                                                                                                                                                                                                                                                                                                                                                                                                                              
  1.435000E+03  1.250000E+02 -5.225000E+03  3.560030E-06 -9.194071E-08 -8.108346E-09 -3.558834E-06  8.909942E-09 -2.322945E-10 -2.048716E-11 -8.906890E-09  0.000000E+00  0.000000E+00  0.000000E+00  0.000000E+00  0.000000E+00  0.000000E+00  0.000000E+00  0.000000E+00  2.824836E+00 -7.672284E-02 -6.766050E-03 -2.823786E+00                                                                                                                                                                                                                                                                                                                                                                                                                                                                                              
  1.250000E+02  1.250000E+02 -4.975000E+03  6.827644E-06  1.322733E-07 -3.544675E-09 -6.826361E-06  1.665521E-08  3.278510E-10 -8.790942E-12 -1.665198E-08  0.000000E+00  0.000000E+00  0.000000E+00  0.000000E+00  0.000000E+00  0.000000E+00  0.000000E+00  0.000000E+00  4.741592E+00  1.023549E-01 -2.741788E-03 -4.740486E+00                                                                                                                                                                                                                                                                                                                                                                                                                                                                                              
  3.750000E+02  1.250000E+02 -4.975000E+03  6.436710E-06  2.169268E-07 -3.947255E-09 -6.433052E-06  1.569450E-08  5.376014E-10 -9.783235E-12 -1.568528E-08  0.000000E+00  0.000000E+00  0.000000E+00  0.000000E+00  0.000000E+00  0.000000E+00  0.000000E+00  0.000000E+00  4.358271E+00  1.671594E-01 -3.020850E-03 -4.355063E+00                                                                                                                                                                                                                                                                                                                                                                                                                                                                                              
  6.250000E+02  1.250000E+02 -4.975000E+03  6.196333E-06  2.710933E-08 -4.556203E-09 -6.196272E-06  1.510645E-08  6.717879E-11 -1.128957E-11 -1.510629E-08  0.000000E+00  0.000000E+00  0.000000E+00  0.000000E+00  0.000000E+00  0.000000E+00  0.000000E+00  0.000000E+00  4.138155E+00  2.100174E-02 -3.467181E-03 -4.138100E+00                                                                                                                                                                                                                                                                                                                                                                                                                                                                                              
  7.600000E+02  1.250000E+02 -4.975000E+03  6.218787E-06 -1.262393E-07 -4.919461E-09 -6.217503E-06  1.515980E-08 -3.127714E-10 -1.218840E-11 -1.515657E-08  0.000000E+00  0.000000E+00  0.000000E+00  0.000000E+00  0.000000E+00  0.000000E+00  0.000000E+00  0.000000E+00  4.157567E+00 -9.611589E-02 -3.744882E-03 -4.156454E+00                                                                                                                                                                                                                                                                                                                                                                                                                                                                                              
  7.800000E+02  1.250000E+02 -4.975000E+03  6.226798E-06 -1.483029E-07 -4.974512E-09 -6.225029E-06  1.517937E-08 -3.674420E-10 -1.232483E-11 -1.517491E-08  0.000000E+00  0.000000E+00  0.000000E+00  0.000000E+00  0.000000E+00  0.000000E+00  0.000000E+00  0.000000E+00  4.165230E+00 -1.130086E-01 -3.787735E-03 -4.163695E+00                                                                                                                                                                                                                                                                                                                                                                                                                                                                                              
  8.000000E+02  1.250000E+02 -4.975000E+03  6.244355E-06 -1.693913E-07 -5.032456E-09 -6.242055E-06  1.522295E-08 -4.197006E-10 -1.246912E-11 -1.521715E-08  0.000000E+00  0.000000E+00  0.000000E+00  0.000000E+00  0.000000E+00  0.000000E+00  0.000000E+00  0.000000E+00  4.183506E+00 -1.293584E-01 -3.834893E-03 -4.181504E+00                                                                                                                                                                                                                                                                                                                                                                                                                                                                                              
  9.350000E+02  1.250000E+02 -4.975000E+03  6.345442E-06 -2.594116E-07 -5.413967E-09 -6.340135E-06  1.547113E-08 -6.426863E-10 -1.341647E-11 -1.545777E-08  0.000000E+00  0.000000E+00  0.000000E+00  0.000000E+00  0.000000E+00  0.000000E+00  0.000000E+00  0.000000E+00  4.282514E+00 -1.992883E-01 -4.139393E-03 -4.277873E+00                                                                                                                                                                                                                                                                                                                                                                                                                                                                                              
  1.185000E+03  1.250000E+02 -4.975000E+03  6.602660E-06 -3.392247E-07 -6.120825E-09 -6.593937E-06  1.609912E-08 -8.404949E-10 -1.516874E-11 -1.607715E-08  0.000000E+00  0.000000E+00  0.000000E+00  0.000000E+00  0.000000E+00  0.000000E+00  0.000000E+00  0.000000E+00  4.531287E+00 -2.627138E-01 -4.713085E-03 -4.523662E+00                                                                                                                                                                                                                                                                                                                                                                                                                                                                                              
  1.435000E+03  1.250000E+02 -4.975000E+03  6.982090E-06 -1.695966E-07 -6.679057E-09 -6.980027E-06  1.703235E-08 -4.202669E-10 -1.656099E-11 -1.702716E-08  0.000000E+00  0.000000E+00  0.000000E+00  0.000000E+00  0.000000E+00  0.000000E+00  0.000000E+00  0.000000E+00  4.920906E+00 -1.320884E-01 -5.201000E-03 -4.919130E+00                                                                                                                                                                                                                                                                                                                                                                                                                                                                                              
  1.250000E+02  1.250000E+02 -4.725000E+03  1.051241E-05  2.107408E-07 -8.155979E-10 -1.051029E-05  2.465603E-08  5.016088E-10 -1.944404E-12 -2.465093E-08  0.000000E+00  0.000000E+00  0.000000E+00  0.000000E+00  0.000000E+00  0.000000E+00  0.000000E+00  0.000000E+00  5.669974E+00  1.366399E-01 -5.280654E-04 -5.668328E+00                                                                                                                                                                                                                                                                                                                                                                                                                                                                                              
  3.750000E+02  1.250000E+02 -4.725000E+03  9.658645E-06  3.475451E-07 -1.173156E-09 -9.652390E-06  2.260187E-08  8.268292E-10 -2.791183E-12 -2.258674E-08  0.000000E+00  0.000000E+00  0.000000E+00  0.000000E+00  0.000000E+00  0.000000E+00  0.000000E+00  0.000000E+00  4.894132E+00  2.220086E-01 -7.315128E-04 -4.889094E+00                                                                                                                                                                                                                                                                                                                                                                                                                                                                                              
  6.250000E+02  1.250000E+02 -4.725000E+03  9.201578E-06  8.183403E-08 -1.622591E-09 -9.201214E-06  2.150755E-08  1.945614E-10 -3.857135E-12 -2.150667E-08  0.000000E+00  0.000000E+00  0.000000E+00  0.000000E+00  0.000000E+00  0.000000E+00  0.000000E+00  0.000000E+00  4.502921E+00  5.173676E-02 -9.913021E-04 -4.502624E+00                                                                                                                                                                                                                                                                                                                                                                                                                                                                                              
  7.600000E+02  1.250000E+02 -4.725000E+03  9.188085E-06 -1.283352E-07 -1.846893E-09 -9.187189E-06  2.147802E-08 -3.050490E-10 -4.390079E-12 -2.147585E-08  0.000000E+00  0.000000E+00  0.000000E+00  0.000000E+00  0.000000E+00  0.000000E+00  0.000000E+00  0.000000E+00  4.505164E+00 -7.857284E-02 -1.129999E-03 -4.504479E+00                                                                                                                                                                                                                                                                                                                                                                                                                                                                                              
  7.800000E+02  1.250000E+02 -4.725000E+03  9.195828E-06 -1.653824E-07 -1.882187E-09 -9.194340E-06  2.149713E-08 -3.931329E-10 -4.474095E-12 -2.149353E-08  0.000000E+00  0.000000E+00  0.000000E+00  0.000000E+00  0.000000E+00  0.000000E+00  0.000000E+00  0.000000E+00  4.513587E+00 -1.014856E-01 -1.152503E-03 -4.512446E+00                                                                                                                                                                                                                                                                                                                                                                                                                                                                                              
  8.000000E+02  1.250000E+02 -4.725000E+03  9.213605E-06 -2.033850E-07 -1.921823E-09 -9.211359E-06  2.154171E-08 -4.835311E-10 -4.568928E-12 -2.153628E-08  0.000000E+00  0.000000E+00  0.000000E+00  0.000000E+00  0.000000E+00  0.000000E+00  0.000000E+00  0.000000E+00  4.532318E+00 -1.256784E-01 -1.179471E-03 -4.530575E+00                                                                                                                                                                                                                                                                                                                                                                                                                                                                                              
  9.350000E+02  1.250000E+02 -4.725000E+03  9.526002E-06 -3.003847E-07 -2.186968E-09 -9.521265E-06  2.228333E-08 -7.143650E-10 -5.201953E-12 -2.227188E-08  0.000000E+00  0.000000E+00  0.000000E+00  0.000000E+00  0.000000E+00  0.000000E+00  0.000000E+00  0.000000E+00  4.782935E+00 -1.893054E-01 -1.356817E-03 -4.779187E+00                                                                                                                                                                                                                                                                                                                                                                                                                                                                                              
  1.185000E+03  1.250000E+02 -4.725000E+03  9.905889E-06 -4.134280E-07 -2.738689E-09 -9.897258E-06  2.320430E-08 -9.841188E-10 -6.520293E-12 -2.318343E-08  0.000000E+00  0.000000E+00  0.000000E+00  0.000000E+00  0.000000E+00  0.000000E+00  0.000000E+00  0.000000E+00  5.161713E+00 -2.686617E-01 -1.740836E-03 -5.154716E+00                                                                                                                                                                                                                                                                                                                                                                                                                                                                                              