Title="TOUGHREACT V3.30-OMP flowvector.tec: Liq & Gas Fluxes (kg/s/m^2), Pore Velocities (m/s), & Heat Fluxes (J/s/m2)"                                                                                                                                                                                                                                                                                                                                                                                                                                                                                                                                                                                                                                                                                                         
Variables= "X(m)"     "Y(m)"      "Z(m)"     "FluxLiq"   "FluxLiq_X"   "FluxLiq_Y"   "FluxLiq_Z"   "PorVelLiq"  "PorVelLiqX"  "PorVelLiqY"  "PorVelLiqZ"     "FluxGas"   "FluxGas_X"   "FluxGas_Y"   "FluxGas_Z"   "PorVelGas"  "PorVelGasX"  "PorVelGasY"  "PorVelGasZ"    "HeatFlux"  "HeatFlux_X"  "HeatFlux_Y"  "HeatFlux_Z"                                                                                                                                                                                                                                                                                                                                                                                                                                                                                                
Zone T= "2.00000000E+10 sec" I=     9 J=    10 K=    23 F=Point
  1.250000E+02  1.250000E+02 -5.425000E+03  9.300764E-07  3.211266E-08 -6.700966E-09 -9.294977E-07  2.138157E-09  7.426388E-11 -1.549605E-11 -2.136811E-09  0.000000E+00  0.000000E+00  0.000000E+00  0.000000E+00  0.000000E+00  0.000000E+00  0.000000E+00  0.000000E+00  8.043858E-01  2.930211E-02 -6.114785E-03 -8.038287E-01                                                                                                                                                                                                                                                                                                                                                                                                                                                                                              
  3.750000E+02  1.250000E+02 -5.425000E+03  8.989222E-07  4.415916E-08 -7.036769E-09 -8.978093E-07  2.066810E-09  1.021266E-10 -1.627494E-11 -2.064221E-09  0.000000E+00  0.000000E+00  0.000000E+00  0.000000E+00  0.000000E+00  0.000000E+00  0.000000E+00  0.000000E+00  7.761548E-01  4.029506E-02 -6.421953E-03 -7.750815E-01                                                                                                                                                                                                                                                                                                                                                                                                                                                                                              
  6.250000E+02  1.250000E+02 -5.425000E+03  8.758849E-07 -3.287241E-08 -7.613618E-09 -8.752347E-07  2.013989E-09 -7.602793E-11 -1.761027E-11 -2.012477E-09  0.000000E+00  0.000000E+00  0.000000E+00  0.000000E+00  0.000000E+00  0.000000E+00  0.000000E+00  0.000000E+00  7.556137E-01 -3.000576E-02 -6.949404E-03 -7.549857E-01                                                                                                                                                                                                                                                                                                                                                                                                                                                                                              
  7.600000E+02  1.250000E+02 -5.425000E+03  8.840660E-07 -9.388146E-08 -7.987392E-09 -8.790308E-07  2.032703E-09 -2.171313E-10 -1.847299E-11 -2.020989E-09  0.000000E+00  0.000000E+00  0.000000E+00  0.000000E+00  0.000000E+00  0.000000E+00  0.000000E+00  0.000000E+00  7.631415E-01 -8.568844E-02 -7.290540E-03 -7.582805E-01                                                                                                                                                                                                                                                                                                                                                                                                                                                                                              
  7.800000E+02  1.250000E+02 -5.425000E+03  8.857215E-07 -1.018639E-07 -8.043042E-09 -8.798077E-07  2.036503E-09 -2.355890E-10 -1.860141E-11 -2.022745E-09  0.000000E+00  0.000000E+00  0.000000E+00  0.000000E+00  0.000000E+00  0.000000E+00  0.000000E+00  0.000000E+00  7.646971E-01 -9.297567E-02 -7.341353E-03 -7.589884E-01                                                                                                                                                                                                                                                                                                                                                                                                                                                                                              
  8.000000E+02  1.250000E+02 -5.425000E+03  8.876721E-07 -1.096016E-07 -8.098940E-09 -8.808425E-07  2.040994E-09 -2.534680E-10 -1.873039E-11 -2.025107E-09  0.000000E+00  0.000000E+00  0.000000E+00  0.000000E+00  0.000000E+00  0.000000E+00  0.000000E+00  0.000000E+00  7.666011E-01 -1.000405E-01 -7.392463E-03 -7.600095E-01                                                                                                                                                                                                                                                                                                                                                                                                                                                                                              
  9.350000E+02  1.250000E+02 -5.425000E+03  9.008592E-07 -1.478824E-07 -8.476661E-09 -8.885979E-07  2.071236E-09 -3.419044E-10 -1.960162E-11 -2.042728E-09  0.000000E+00  0.000000E+00  0.000000E+00  0.000000E+00  0.000000E+00  0.000000E+00  0.000000E+00  0.000000E+00  7.790196E-01 -1.349751E-01 -7.737485E-03 -7.671984E-01                                                                                                                                                                                                                                                                                                                                                                                                                                                                                              
  1.185000E+03  1.250000E+02 -5.425000E+03  9.346574E-07 -1.649784E-07 -9.114601E-09 -9.199367E-07  2.148149E-09 -3.813262E-10 -2.106882E-11 -2.113928E-09  0.000000E+00  0.000000E+00  0.000000E+00  0.000000E+00  0.000000E+00  0.000000E+00  0.000000E+00  0.000000E+00  8.093017E-01 -1.505695E-01 -8.319054E-03 -7.951282E-01                                                                                                                                                                                                                                                                                                                                                                                                                                                                                              
  1.435000E+03  1.250000E+02 -5.425000E+03  9.568786E-07 -7.379632E-08 -9.510293E-09 -9.539813E-07  2.198273E-09 -1.705414E-10 -2.197680E-11 -2.191538E-09  0.000000E+00  0.000000E+00  0.000000E+00  0.000000E+00  0.000000E+00  0.000000E+00  0.000000E+00  0.000000E+00  8.289018E-01 -6.734903E-02 -8.679721E-03 -8.261155E-01                                                                                                                                                                                                                                                                                                                                                                                                                                                                                              
  1.250000E+02  1.250000E+02 -5.225000E+03  3.459905E-06  5.523849E-08 -5.955939E-09 -3.459459E-06  7.845138E-09  1.265190E-10 -1.364268E-11 -7.844106E-09  0.000000E+00  0.000000E+00  0.000000E+00  0.000000E+00  0.000000E+00  0.000000E+00  0.000000E+00  0.000000E+00  2.805951E+00  4.779557E-02 -5.152785E-03 -2.805539E+00                                                                                                                                                                                                                                                                                                                                                                                                                                                                                              
  3.750000E+02  1.250000E+02 -5.225000E+03  3.316129E-06  8.444200E-08 -6.313192E-09 -3.315048E-06  7.519029E-09  1.934112E-10 -1.446106E-11 -7.516527E-09  0.000000E+00  0.000000E+00  0.000000E+00  0.000000E+00  0.000000E+00  0.000000E+00  0.000000E+00  0.000000E+00  2.666922E+00  7.302060E-02 -5.452607E-03 -2.665917E+00                                                                                                                                                                                                                                                                                                                                                                                                                                                                                              
  6.250000E+02  1.250000E+02 -5.225000E+03  3.217819E-06 -1.933234E-08 -6.908685E-09 -3.217753E-06  7.296516E-09 -4.427784E-11 -1.582536E-11 -7.296365E-09  0.000000E+00  0.000000E+00  0.000000E+00  0.000000E+00  0.000000E+00  0.000000E+00  0.000000E+00  0.000000E+00  2.576679E+00 -1.666108E-02 -5.962276E-03 -2.576618E+00                                                                                                                                                                                                                                                                                                                                                                                                                                                                                              
  7.600000E+02  1.250000E+02 -5.225000E+03  3.233229E-06 -1.027861E-07 -7.286343E-09 -3.231587E-06  7.330632E-09 -2.354265E-10 -1.668865E-11 -7.326832E-09  0.000000E+00  0.000000E+00  0.000000E+00  0.000000E+00  0.000000E+00  0.000000E+00  0.000000E+00  0.000000E+00  2.589887E+00 -8.870852E-02 -6.288358E-03 -2.588360E+00                                                                                                                                                                                                                                                                                                                                                                                                                                                                                              
  7.800000E+02  1.250000E+02 -5.225000E+03  3.236922E-06 -1.140702E-07 -7.342815E-09 -3.234903E-06  7.338944E-09 -2.612692E-10 -1.681780E-11 -7.334273E-09  0.000000E+00  0.000000E+00  0.000000E+00  0.000000E+00  0.000000E+00  0.000000E+00  0.000000E+00  0.000000E+00  2.593443E+00 -9.846696E-02 -6.337409E-03 -2.591566E+00                                                                                                                                                                                                                                                                                                                                                                                                                                                                                              
  8.000000E+02  1.250000E+02 -5.225000E+03  3.242786E-06 -1.249278E-07 -7.400215E-09 -3.240371E-06  7.352368E-09 -2.861238E-10 -1.694930E-11 -7.346779E-09  0.000000E+00  0.000000E+00  0.000000E+00  0.000000E+00  0.000000E+00  0.000000E+00  0.000000E+00  0.000000E+00  2.599908E+00 -1.078853E-01 -6.388026E-03 -2.597660E+00                                                                                                                                                                                                                                                                                                                                                                                                                                                                                              
  9.350000E+02  1.250000E+02 -5.225000E+03  3.279730E-06 -1.769408E-07 -7.784819E-09 -3.274944E-06  7.435909E-09 -4.051475E-10 -1.782905E-11 -7.424842E-09  0.000000E+00  0.000000E+00  0.000000E+00  0.000000E+00  0.000000E+00  0.000000E+00  0.000000E+00  0.000000E+00  2.636447E+00 -1.529430E-01 -6.724325E-03 -2.631998E+00                                                                                                                                                                                                                                                                                                                                                                                                                                                                                              
  1.185000E+03  1.250000E+02 -5.225000E+03  3.405508E-06 -2.088483E-07 -8.445781E-09 -3.399088E-06  7.718436E-09 -4.781004E-10 -1.933651E-11 -7.703591E-09  0.000000E+00  0.000000E+00  0.000000E+00  0.000000E+00  0.000000E+00  0.000000E+00  0.000000E+00  0.000000E+00  2.753041E+00 -1.807521E-01 -7.303118E-03 -2.747091E+00                                                                                                                                                                                                                                                                                                                                                                                                                                                                                              
  1.435000E+03  1.250000E+02 -5.225000E+03  3.549931E-06 -9.701526E-08 -8.879992E-09 -3.548594E-06  8.044746E-09 -2.220640E-10 -2.032741E-11 -8.041655E-09  0.000000E+00  0.000000E+00  0.000000E+00  0.000000E+00  0.000000E+00  0.000000E+00  0.000000E+00  0.000000E+00  2.895437E+00 -8.404998E-02 -7.692943E-03 -2.894206E+00                                                                                                                                                                                                                                                                                                                                                                                                                                                                                              
  1.250000E+02  1.250000E+02 -4.975000E+03  6.811423E-06  1.373414E-07 -3.937129E-09 -6.810037E-06  1.501357E-08  3.078241E-10 -8.829775E-12 -1.501041E-08  0.000000E+00  0.000000E+00  0.000000E+00  0.000000E+00  0.000000E+00  0.000000E+00  0.000000E+00  0.000000E+00  4.774542E+00  1.087315E-01 -3.115709E-03 -4.773302E+00                                                                                                                                                                                                                                                                                                                                                                                                                                                                                              
  3.750000E+02  1.250000E+02 -4.975000E+03  6.402764E-06  2.256675E-07 -4.355624E-09 -6.398785E-06  1.410828E-08  5.057225E-10 -9.761910E-12 -1.409921E-08  0.000000E+00  0.000000E+00  0.000000E+00  0.000000E+00  0.000000E+00  0.000000E+00  0.000000E+00  0.000000E+00  4.378612E+00  1.778616E-01 -3.408098E-03 -4.374997E+00                                                                                                                                                                                                                                                                                                                                                                                                                                                                                              
  6.250000E+02  1.250000E+02 -4.975000E+03  6.147944E-06  2.695698E-08 -4.999829E-09 -6.147883E-06  1.354647E-08  6.040558E-11 -1.120293E-11 -1.354633E-08  0.000000E+00  0.000000E+00  0.000000E+00  0.000000E+00  0.000000E+00  0.000000E+00  0.000000E+00  0.000000E+00  4.148580E+00  2.137651E-02 -3.889437E-03 -4.148524E+00                                                                                                                                                                                                                                                                                                                                                                                                                                                                                              
  7.600000E+02  1.250000E+02 -4.975000E+03  6.173722E-06 -1.343712E-07 -5.385144E-09 -6.172257E-06  1.360178E-08 -3.010488E-10 -1.206491E-11 -1.359844E-08  0.000000E+00  0.000000E+00  0.000000E+00  0.000000E+00  0.000000E+00  0.000000E+00  0.000000E+00  0.000000E+00  4.170624E+00 -1.045866E-01 -4.190669E-03 -4.169311E+00                                                                                                                                                                                                                                                                                                                                                                                                                                                                                              
  7.800000E+02  1.250000E+02 -4.975000E+03  6.182707E-06 -1.573613E-07 -5.443721E-09 -6.180702E-06  1.362158E-08 -3.525627E-10 -1.219620E-11 -1.361701E-08  0.000000E+00  0.000000E+00  0.000000E+00  0.000000E+00  0.000000E+00  0.000000E+00  0.000000E+00  0.000000E+00  4.179161E+00 -1.225936E-01 -4.237470E-03 -4.177360E+00                                                                                                                                                                                                                                                                                                                                                                                                                                                                                              
  8.000000E+02  1.250000E+02 -4.975000E+03  6.201885E-06 -1.792766E-07 -5.505757E-09 -6.199291E-06  1.366453E-08 -4.016703E-10 -1.233601E-11 -1.365862E-08  0.000000E+00  0.000000E+00  0.000000E+00  0.000000E+00  0.000000E+00  0.000000E+00  0.000000E+00  0.000000E+00  4.198950E+00 -1.399751E-01 -4.289575E-03 -4.196614E+00                                                                                                                                                                                                                                                                                                                                                                                                                                                                                              
  9.350000E+02  1.250000E+02 -4.975000E+03  6.307050E-06 -2.734642E-07 -5.909994E-09 -6.301116E-06  1.389698E-08 -6.126269E-10 -1.324353E-11 -1.388347E-08  0.000000E+00  0.000000E+00  0.000000E+00  0.000000E+00  0.000000E+00  0.000000E+00  0.000000E+00  0.000000E+00  4.299795E+00 -2.148523E-01 -4.620002E-03 -4.294421E+00                                                                                                                                                                                                                                                                                                                                                                                                                                                                                              
  1.185000E+03  1.250000E+02 -4.975000E+03  6.581761E-06 -3.550906E-07 -6.652286E-09 -6.572172E-06  1.450156E-08 -7.955618E-10 -1.490733E-11 -1.447972E-08  0.000000E+00  0.000000E+00  0.000000E+00  0.000000E+00  0.000000E+00  0.000000E+00  0.000000E+00  0.000000E+00  4.562303E+00 -2.814298E-01 -5.239575E-03 -4.553612E+00                                                                                                                                                                                                                                                                                                                                                                                                                                                                                              
  1.435000E+03  1.250000E+02 -4.975000E+03  6.977933E-06 -1.765439E-07 -7.234967E-09 -6.975696E-06  1.538025E-08 -3.955985E-10 -1.622277E-11 -1.537515E-08  0.000000E+00  0.000000E+00  0.000000E+00  0.000000E+00  0.000000E+00  0.000000E+00  0.000000E+00  0.000000E+00  4.965636E+00 -1.407921E-01 -5.768885E-03 -4.963636E+00                                                                                                                                                                                                                                                                                                                                                                                                                                                                                              
  1.250000E+02  1.250000E+02 -4.725000E+03  1.051704E-05  2.233191E-07 -8.855447E-10 -1.051467E-05  2.223046E-08  4.793824E-10 -1.903768E-12 -2.222529E-08  0.000000E+00  0.000000E+00  0.000000E+00  0.000000E+00  0.000000E+00  0.000000E+00  0.000000E+00  0.000000E+00  5.663370E+00  1.447723E-01 -5.733619E-04 -5.661519E+00                                                                                                                                                                                                                                                                                                                                                                                                                                                                                              
  3.750000E+02  1.250000E+02 -4.725000E+03  9.622612E-06  3.712795E-07 -1.252824E-09 -9.615446E-06  2.029880E-08  7.966906E-10 -2.688785E-12 -2.028316E-08  0.000000E+00  0.000000E+00  0.000000E+00  0.000000E+00  0.000000E+00  0.000000E+00  0.000000E+00  0.000000E+00  4.876930E+00  2.371819E-01 -7.819588E-04 -4.871159E+00                                                                                                                                                                                                                                                                                                                                                                                                                                                                                              
  6.250000E+02  1.250000E+02 -4.725000E+03  9.127837E-06  8.813971E-08 -1.733642E-09 -9.127411E-06  1.923652E-08  1.890235E-10 -3.718228E-12 -1.923559E-08  0.000000E+00  0.000000E+00  0.000000E+00  0.000000E+00  0.000000E+00  0.000000E+00  0.000000E+00  0.000000E+00  4.470680E+00  5.575250E-02 -1.060760E-03 -4.470332E+00                                                                                                                                                                                                                                                                                                                                                                                                                                                                                              
  7.600000E+02  1.250000E+02 -4.725000E+03  9.115884E-06 -1.395943E-07 -1.969689E-09 -9.114815E-06  1.921324E-08 -2.993656E-10 -4.224153E-12 -1.921091E-08  0.000000E+00  0.000000E+00  0.000000E+00  0.000000E+00  0.000000E+00  0.000000E+00  0.000000E+00  0.000000E+00  4.474247E+00 -8.560206E-02 -1.207065E-03 -4.473427E+00                                                                                                                                                                                                                                                                                                                                                                                                                                                                                              
  7.800000E+02  1.250000E+02 -4.725000E+03  9.124910E-06 -1.797790E-07 -2.006929E-09 -9.123139E-06  1.923318E-08 -3.855653E-10 -4.304119E-12 -1.922931E-08  0.000000E+00  0.000000E+00  0.000000E+00  0.000000E+00  0.000000E+00  0.000000E+00  0.000000E+00  0.000000E+00  4.483457E+00 -1.104978E-01 -1.230913E-03 -4.482095E+00                                                                                                                                                                                                                                                                                                                                                                                                                                                                                              
  8.000000E+02  1.250000E+02 -4.725000E+03  9.144790E-06 -2.209790E-07 -2.048954E-09 -9.142119E-06  1.927782E-08 -4.739628E-10 -4.394812E-12 -1.927199E-08  0.000000E+00  0.000000E+00  0.000000E+00  0.000000E+00  0.000000E+00  0.000000E+00  0.000000E+00  0.000000E+00  4.503473E+00 -1.367181E-01 -1.259660E-03 -4.501397E+00                                                                                                                                                                                                                                                                                                                                                                                                                                                                                              
  9.350000E+02  1.250000E+02 -4.725000E+03  9.480463E-06 -3.226570E-07 -2.326157E-09 -9.474970E-06  1.999226E-08 -6.921469E-10 -4.991316E-12 -1.998028E-08  0.000000E+00  0.000000E+00  0.000000E+00  0.000000E+00  0.000000E+00  0.000000E+00  0.000000E+00  0.000000E+00  4.761675E+00 -2.034771E-01 -1.444695E-03 -4.757325E+00                                                                                                                                                                                                                                                                                                                                                                                                                                                                                              
  1.185000E+03  1.250000E+02 -4.725000E+03  9.891249E-06 -4.362841E-07 -2.893939E-09 -9.881622E-06  2.088475E-08 -9.365613E-10 -6.214011E-12 -2.086374E-08  0.000000E+00  0.000000E+00  0.000000E+00  0.000000E+00  0.000000E+00  0.000000E+00  0.000000E+00  0.000000E+00  5.153402E+00 -2.835322E-01 -1.840892E-03 -5.145596E+00                                                                                                                                                                                                                                                                                                                                                                                                                                                                                              