Title="TOUGHREACT V3.30-OMP flowvector.tec: Liq & Gas Fluxes (kg/s/m^2), Pore Velocities (m/s), & Heat Fluxes (J/s/m2)"                                                                                                                                                                                                                                                                                                                                                                                                                                                                                                                                                                                                                                                                                                         
Variables= "X(m)"     "Y(m)"      "Z(m)"     "FluxLiq"   "FluxLiq_X"   "FluxLiq_Y"   "FluxLiq_Z"   "PorVelLiq"  "PorVelLiqX"  "PorVelLiqY"  "PorVelLiqZ"     "FluxGas"   "FluxGas_X"   "FluxGas_Y"   "FluxGas_Z"   "PorVelGas"  "PorVelGasX"  "PorVelGasY"  "PorVelGasZ"    "HeatFlux"  "HeatFlux_X"  "HeatFlux_Y"  "HeatFlux_Z"                                                                                                                                                                                                                                                                                                                                                                                                                                                                                                
Zone T= "2.66000000E+10 sec" I=     9 J=    10 K=    23 F=Point
  1.250000E+02  1.250000E+02 -5.425000E+03  9.174164E-07  3.613584E-08 -8.401330E-09 -9.166659E-07  1.778871E-09  7.054002E-11 -1.639928E-11 -1.777396E-09  0.000000E+00  0.000000E+00  0.000000E+00  0.000000E+00  0.000000E+00  0.000000E+00  0.000000E+00  0.000000E+00  8.450412E-01  3.550412E-02 -8.254916E-03 -8.442547E-01                                                                                                                                                                                                                                                                                                                                                                                                                                                                                              
  3.750000E+02  1.250000E+02 -5.425000E+03  8.815610E-07  4.857207E-08 -8.798344E-09 -8.801779E-07  1.709581E-09  9.482046E-11 -1.717699E-11 -1.706863E-09  0.000000E+00  0.000000E+00  0.000000E+00  0.000000E+00  0.000000E+00  0.000000E+00  0.000000E+00  0.000000E+00  8.103377E-01  4.772349E-02 -8.645979E-03 -8.088850E-01                                                                                                                                                                                                                                                                                                                                                                                                                                                                                              
  6.250000E+02  1.250000E+02 -5.425000E+03  8.546692E-07 -4.214706E-08 -9.478917E-09 -8.535767E-07  1.657580E-09 -8.228231E-11 -1.850710E-11 -1.655433E-09  0.000000E+00  0.000000E+00  0.000000E+00  0.000000E+00  0.000000E+00  0.000000E+00  0.000000E+00  0.000000E+00  7.849145E-01 -4.142607E-02 -9.316584E-03 -7.837652E-01                                                                                                                                                                                                                                                                                                                                                                                                                                                                                              
  7.600000E+02  1.250000E+02 -5.425000E+03  8.660653E-07 -1.138811E-07 -9.915680E-09 -8.584882E-07  1.679627E-09 -2.223266E-10 -1.935750E-11 -1.664735E-09  0.000000E+00  0.000000E+00  0.000000E+00  0.000000E+00  0.000000E+00  0.000000E+00  0.000000E+00  0.000000E+00  7.962467E-01 -1.119252E-01 -9.745726E-03 -7.882808E-01                                                                                                                                                                                                                                                                                                                                                                                                                                                                                              
  7.800000E+02  1.250000E+02 -5.425000E+03  8.683136E-07 -1.231795E-07 -9.980680E-09 -8.594741E-07  1.683991E-09 -2.404744E-10 -1.948403E-11 -1.666619E-09  0.000000E+00  0.000000E+00  0.000000E+00  0.000000E+00  0.000000E+00  0.000000E+00  0.000000E+00  0.000000E+00  7.985363E-01 -1.210672E-01 -9.809661E-03 -7.892444E-01                                                                                                                                                                                                                                                                                                                                                                                                                                                                                              
  8.000000E+02  1.250000E+02 -5.425000E+03  8.709132E-07 -1.321750E-07 -1.004596E-08 -8.607663E-07  1.689051E-09 -2.580155E-10 -1.961114E-11 -1.669112E-09  0.000000E+00  0.000000E+00  0.000000E+00  0.000000E+00  0.000000E+00  0.000000E+00  0.000000E+00  0.000000E+00  8.012837E-01 -1.299131E-01 -9.874049E-03 -7.906204E-01                                                                                                                                                                                                                                                                                                                                                                                                                                                                                              
  9.350000E+02  1.250000E+02 -5.425000E+03  8.879276E-07 -1.761349E-07 -1.048626E-08 -8.702195E-07  1.722008E-09 -3.437179E-10 -2.046776E-11 -1.687231E-09  0.000000E+00  0.000000E+00  0.000000E+00  0.000000E+00  0.000000E+00  0.000000E+00  0.000000E+00  0.000000E+00  8.184735E-01 -1.731083E-01 -1.030731E-02 -7.998913E-01                                                                                                                                                                                                                                                                                                                                                                                                                                                                                              
  1.185000E+03  1.250000E+02 -5.425000E+03  9.282286E-07 -1.939247E-07 -1.121777E-08 -9.076760E-07  1.799373E-09 -3.783115E-10 -2.188564E-11 -1.759018E-09  0.000000E+00  0.000000E+00  0.000000E+00  0.000000E+00  0.000000E+00  0.000000E+00  0.000000E+00  0.000000E+00  8.569411E-01 -1.905804E-01 -1.102492E-02 -8.354074E-01                                                                                                                                                                                                                                                                                                                                                                                                                                                                                              
  1.435000E+03  1.250000E+02 -5.425000E+03  9.507338E-07 -8.608308E-08 -1.166612E-08 -9.467567E-07  1.842009E-09 -1.678985E-10 -2.275241E-11 -1.834200E-09  0.000000E+00  0.000000E+00  0.000000E+00  0.000000E+00  0.000000E+00  0.000000E+00  0.000000E+00  0.000000E+00  8.777623E-01 -8.459772E-02 -1.146530E-02 -8.736009E-01                                                                                                                                                                                                                                                                                                                                                                                                                                                                                              
  1.250000E+02  1.250000E+02 -5.225000E+03  3.425114E-06  6.261042E-08 -7.471869E-09 -3.424534E-06  6.536515E-09  1.208314E-10 -1.442148E-11 -6.535382E-09  0.000000E+00  0.000000E+00  0.000000E+00  0.000000E+00  0.000000E+00  0.000000E+00  0.000000E+00  0.000000E+00  2.896348E+00  5.770170E-02 -6.885197E-03 -2.895765E+00                                                                                                                                                                                                                                                                                                                                                                                                                                                                                              
  3.750000E+02  1.250000E+02 -5.225000E+03  3.259815E-06  9.536614E-08 -7.889597E-09 -3.258410E-06  6.221562E-09  1.840502E-10 -1.522731E-11 -6.218820E-09  0.000000E+00  0.000000E+00  0.000000E+00  0.000000E+00  0.000000E+00  0.000000E+00  0.000000E+00  0.000000E+00  2.733935E+00  8.782339E-02 -7.254654E-03 -2.732514E+00                                                                                                                                                                                                                                                                                                                                                                                                                                                                                              
  6.250000E+02  1.250000E+02 -5.225000E+03  3.142040E-06 -2.636125E-08 -8.592324E-09 -3.141918E-06  5.997747E-09 -5.087170E-11 -1.658398E-11 -5.997508E-09  0.000000E+00  0.000000E+00  0.000000E+00  0.000000E+00  0.000000E+00  0.000000E+00  0.000000E+00  0.000000E+00  2.624884E+00 -2.418908E-02 -7.894296E-03 -2.624760E+00                                                                                                                                                                                                                                                                                                                                                                                                                                                                                              
  7.600000E+02  1.250000E+02 -5.225000E+03  3.163380E-06 -1.248698E-07 -9.034422E-09 -3.160902E-06  6.037574E-09 -2.409845E-10 -1.743492E-11 -6.032737E-09  0.000000E+00  0.000000E+00  0.000000E+00  0.000000E+00  0.000000E+00  0.000000E+00  0.000000E+00  0.000000E+00  2.643687E+00 -1.147266E-01 -8.300524E-03 -2.641183E+00                                                                                                                                                                                                                                                                                                                                                                                                                                                                                              
  7.800000E+02  1.250000E+02 -5.225000E+03  3.168284E-06 -1.379494E-07 -9.100662E-09 -3.165266E-06  6.046868E-09 -2.662230E-10 -1.756253E-11 -6.040980E-09  0.000000E+00  0.000000E+00  0.000000E+00  0.000000E+00  0.000000E+00  0.000000E+00  0.000000E+00  0.000000E+00  2.648539E+00 -1.267777E-01 -8.361998E-03 -2.645489E+00                                                                                                                                                                                                                                                                                                                                                                                                                                                                                              
  8.000000E+02  1.250000E+02 -5.225000E+03  3.175639E-06 -1.504931E-07 -9.168265E-09 -3.172058E-06  6.061019E-09 -2.904142E-10 -1.769312E-11 -6.054032E-09  0.000000E+00  0.000000E+00  0.000000E+00  0.000000E+00  0.000000E+00  0.000000E+00  0.000000E+00  0.000000E+00  2.656760E+00 -1.383737E-01 -8.426127E-03 -2.653141E+00                                                                                                                                                                                                                                                                                                                                                                                                                                                                                              
  9.350000E+02  1.250000E+02 -5.225000E+03  3.220563E-06 -2.103171E-07 -9.617604E-09 -3.213674E-06  6.146219E-09 -4.057378E-10 -1.855876E-11 -6.132784E-09  0.000000E+00  0.000000E+00  0.000000E+00  0.000000E+00  0.000000E+00  0.000000E+00  0.000000E+00  0.000000E+00  2.700952E+00 -1.935850E-01 -8.845491E-03 -2.693991E+00                                                                                                                                                                                                                                                                                                                                                                                                                                                                                              
  1.185000E+03  1.250000E+02 -5.225000E+03  3.372310E-06 -2.441507E-07 -1.037406E-08 -3.363444E-06  6.432617E-09 -4.708908E-10 -2.001078E-11 -6.415327E-09  0.000000E+00  0.000000E+00  0.000000E+00  0.000000E+00  0.000000E+00  0.000000E+00  0.000000E+00  0.000000E+00  2.844286E+00 -2.250964E-01 -9.553386E-03 -2.835349E+00                                                                                                                                                                                                                                                                                                                                                                                                                                                                                              
  1.435000E+03  1.250000E+02 -5.225000E+03  3.535761E-06 -1.121301E-07 -1.086671E-08 -3.533966E-06  6.742935E-09 -2.162381E-10 -2.095833E-11 -6.739435E-09  0.000000E+00  0.000000E+00  0.000000E+00  0.000000E+00  0.000000E+00  0.000000E+00  0.000000E+00  0.000000E+00  3.009557E+00 -1.035233E-01 -1.003229E-02 -3.007760E+00                                                                                                                                                                                                                                                                                                                                                                                                                                                                                              
  1.250000E+02  1.250000E+02 -4.975000E+03  6.786215E-06  1.603400E-07 -4.893092E-09 -6.784319E-06  1.253974E-08  3.016586E-10 -9.211129E-12 -1.253611E-08  0.000000E+00  0.000000E+00  0.000000E+00  0.000000E+00  0.000000E+00  0.000000E+00  0.000000E+00  0.000000E+00  4.816573E+00  1.312449E-01 -4.003986E-03 -4.814783E+00                                                                                                                                                                                                                                                                                                                                                                                                                                                                                              
  3.750000E+02  1.250000E+02 -4.975000E+03  6.314119E-06  2.679412E-07 -5.378331E-09 -6.308430E-06  1.167012E-08  5.040650E-10 -1.011966E-11 -1.165922E-08  0.000000E+00  0.000000E+00  0.000000E+00  0.000000E+00  0.000000E+00  0.000000E+00  0.000000E+00  0.000000E+00  4.382921E+00  2.183263E-01 -4.352053E-03 -4.377478E+00                                                                                                                                                                                                                                                                                                                                                                                                                                                                                              
  6.250000E+02  1.250000E+02 -4.975000E+03  5.992204E-06  3.022860E-08 -6.151243E-09 -5.992124E-06  1.108050E-08  5.685736E-11 -1.157307E-11 -1.108035E-08  0.000000E+00  0.000000E+00  0.000000E+00  0.000000E+00  0.000000E+00  0.000000E+00  0.000000E+00  0.000000E+00  4.111875E+00  2.479251E-02 -4.951087E-03 -4.111797E+00                                                                                                                                                                                                                                                                                                                                                                                                                                                                                              
  7.600000E+02  1.250000E+02 -4.975000E+03  6.035644E-06 -1.685699E-07 -6.605396E-09 -6.033286E-06  1.115848E-08 -3.171026E-10 -1.242547E-11 -1.115396E-08  0.000000E+00  0.000000E+00  0.000000E+00  0.000000E+00  0.000000E+00  0.000000E+00  0.000000E+00  0.000000E+00  4.146592E+00 -1.357468E-01 -5.318344E-03 -4.144366E+00                                                                                                                                                                                                                                                                                                                                                                                                                                                                                              
  7.800000E+02  1.250000E+02 -4.975000E+03  6.048659E-06 -1.957883E-07 -6.674703E-09 -6.045486E-06  1.118236E-08 -3.683086E-10 -1.255587E-11 -1.117629E-08  0.000000E+00  0.000000E+00  0.000000E+00  0.000000E+00  0.000000E+00  0.000000E+00  0.000000E+00  0.000000E+00  4.158209E+00 -1.578197E-01 -5.375967E-03 -4.155209E+00                                                                                                                                                                                                                                                                                                                                                                                                                                                                                              
  8.000000E+02  1.250000E+02 -4.975000E+03  6.073240E-06 -2.215562E-07 -6.748486E-09 -6.069194E-06  1.122814E-08 -4.167715E-10 -1.269551E-11 -1.122040E-08  0.000000E+00  0.000000E+00  0.000000E+00  0.000000E+00  0.000000E+00  0.000000E+00  0.000000E+00  0.000000E+00  4.182150E+00 -1.789510E-01 -5.440827E-03 -4.178316E+00                                                                                                                                                                                                                                                                                                                                                                                                                                                                                              
  9.350000E+02  1.250000E+02 -4.975000E+03  6.201724E-06 -3.308425E-07 -7.219364E-09 -6.192888E-06  1.146331E-08 -6.221680E-10 -1.358166E-11 -1.144640E-08  0.000000E+00  0.000000E+00  0.000000E+00  0.000000E+00  0.000000E+00  0.000000E+00  0.000000E+00  0.000000E+00  4.294163E+00 -2.688475E-01 -5.837857E-03 -4.285735E+00                                                                                                                                                                                                                                                                                                                                                                                                                                                                                              
  1.185000E+03  1.250000E+02 -4.975000E+03  6.542393E-06 -4.167813E-07 -8.052894E-09 -6.529100E-06  1.208681E-08 -7.837312E-10 -1.514704E-11 -1.206136E-08  0.000000E+00  0.000000E+00  0.000000E+00  0.000000E+00  0.000000E+00  0.000000E+00  0.000000E+00  0.000000E+00  4.601862E+00 -3.417259E-01 -6.561287E-03 -4.589151E+00                                                                                                                                                                                                                                                                                                                                                                                                                                                                                              
  1.435000E+03  1.250000E+02 -4.975000E+03  6.988635E-06 -2.029039E-07 -8.689075E-09 -6.985684E-06  1.291036E-08 -3.815796E-10 -1.635148E-11 -1.290471E-08  0.000000E+00  0.000000E+00  0.000000E+00  0.000000E+00  0.000000E+00  0.000000E+00  0.000000E+00  0.000000E+00  5.037317E+00 -1.674676E-01 -7.170962E-03 -5.034528E+00                                                                                                                                                                                                                                                                                                                                                                                                                                                                                              
  1.250000E+02  1.250000E+02 -4.725000E+03  1.057631E-05  2.883857E-07 -1.004064E-09 -1.057237E-05  1.865139E-08  5.174167E-10 -1.803763E-12 -1.864421E-08  0.000000E+00  0.000000E+00  0.000000E+00  0.000000E+00  0.000000E+00  0.000000E+00  0.000000E+00  0.000000E+00  5.680683E+00  1.865162E-01 -6.488404E-04 -5.677620E+00                                                                                                                                                                                                                                                                                                                                                                                                                                                                                              
  3.750000E+02  1.250000E+02 -4.725000E+03  9.519697E-06  5.044457E-07 -1.436076E-09 -9.506322E-06  1.677180E-08  9.050046E-10 -2.577764E-12 -1.674736E-08  0.000000E+00  0.000000E+00  0.000000E+00  0.000000E+00  0.000000E+00  0.000000E+00  0.000000E+00  0.000000E+00  4.830211E+00  3.215255E-01 -8.970979E-04 -4.819497E+00                                                                                                                                                                                                                                                                                                                                                                                                                                                                                              
  6.250000E+02  1.250000E+02 -4.725000E+03  8.804596E-06  1.257366E-07 -2.091984E-09 -8.803698E-06  1.551642E-08  2.254849E-10 -3.755344E-12 -1.551478E-08  0.000000E+00  0.000000E+00  0.000000E+00  0.000000E+00  0.000000E+00  0.000000E+00  0.000000E+00  0.000000E+00  4.326840E+00  7.949936E-02 -1.283545E-03 -4.326110E+00                                                                                                                                                                                                                                                                                                                                                                                                                                                                                              
  7.600000E+02  1.250000E+02 -4.725000E+03  8.800308E-06 -2.101927E-07 -2.388542E-09 -8.797798E-06  1.551060E-08 -3.772365E-10 -4.286874E-12 -1.550601E-08  0.000000E+00  0.000000E+00  0.000000E+00  0.000000E+00  0.000000E+00  0.000000E+00  0.000000E+00  0.000000E+00  4.337075E+00 -1.292667E-01 -1.468132E-03 -4.335148E+00                                                                                                                                                                                                                                                                                                                                                                                                                                                                                              
  7.800000E+02  1.250000E+02 -4.725000E+03  8.817654E-06 -2.694775E-07 -2.435234E-09 -8.813535E-06  1.554152E-08 -4.836512E-10 -4.370685E-12 -1.553399E-08  0.000000E+00  0.000000E+00  0.000000E+00  0.000000E+00  0.000000E+00  0.000000E+00  0.000000E+00  0.000000E+00  4.350841E+00 -1.660883E-01 -1.498202E-03 -4.347670E+00                                                                                                                                                                                                                                                                                                                                                                                                                                                                                              
  8.000000E+02  1.250000E+02 -4.725000E+03  8.849619E-06 -3.295139E-07 -2.487847E-09 -8.843481E-06  1.559951E-08 -5.913406E-10 -4.465550E-12 -1.558829E-08  0.000000E+00  0.000000E+00  0.000000E+00  0.000000E+00  0.000000E+00  0.000000E+00  0.000000E+00  0.000000E+00  4.377304E+00 -2.041996E-01 -1.534340E-03 -4.372538E+00                                                                                                                                                                                                                                                                                                                                                                                                                                                                                              
  9.350000E+02  1.250000E+02 -4.725000E+03  9.337353E-06 -4.465673E-07 -2.822376E-09 -9.326667E-06  1.644813E-08 -8.010792E-10 -5.065836E-12 -1.642861E-08  0.000000E+00  0.000000E+00  0.000000E+00  0.000000E+00  0.000000E+00  0.000000E+00  0.000000E+00  0.000000E+00  4.696861E+00 -2.815060E-01 -1.754896E-03 -4.688417E+00                                                                                                                                                                                                                                                                                                                                                                                                                                                                                              
  1.185000E+03  1.250000E+02 -4.725000E+03  9.869710E-06 -5.515047E-07 -3.451480E-09 -9.854289E-06  1.739577E-08 -9.893880E-10 -6.195149E-12 -1.736761E-08  0.000000E+00  0.000000E+00  0.000000E+00  0.000000E+00  0.000000E+00  0.000000E+00  0.000000E+00  0.000000E+00  5.144830E+00 -3.576431E-01 -2.195751E-03 -5.132384E+00                                                                                                                                                                                                                                                                                                                                                                                                                                                                                              