Title="TOUGHREACT V3.30-OMP flowvector.tec: Liq & Gas Fluxes (kg/s/m^2), Pore Velocities (m/s), & Heat Fluxes (J/s/m2)"                                                                                                                                                                                                                                                                                                                                                                                                                                                                                                                                                                                                                                                                                                         
Variables= "X(m)"     "Y(m)"      "Z(m)"     "FluxLiq"   "FluxLiq_X"   "FluxLiq_Y"   "FluxLiq_Z"   "PorVelLiq"  "PorVelLiqX"  "PorVelLiqY"  "PorVelLiqZ"     "FluxGas"   "FluxGas_X"   "FluxGas_Y"   "FluxGas_Z"   "PorVelGas"  "PorVelGasX"  "PorVelGasY"  "PorVelGasZ"    "HeatFlux"  "HeatFlux_X"  "HeatFlux_Y"  "HeatFlux_Z"                                                                                                                                                                                                                                                                                                                                                                                                                                                                                                
Zone T= "3.00000000E+09 sec" I=     9 J=    10 K=    23 F=Point
  1.250000E+02  1.250000E+02 -5.425000E+03  9.578043E-07  2.871650E-08 -2.431983E-09 -9.573707E-07  4.300567E-09  1.295654E-10 -1.097263E-11 -4.298601E-09  0.000000E+00  0.000000E+00  0.000000E+00  0.000000E+00  0.000000E+00  0.000000E+00  0.000000E+00  0.000000E+00  6.447098E-01  2.002899E-02 -1.696262E-03 -6.443963E-01                                                                                                                                                                                                                                                                                                                                                                                                                                                                                              
  3.750000E+02  1.250000E+02 -5.425000E+03  9.317955E-07  4.237318E-08 -2.576394E-09 -9.308280E-07  4.184614E-09  1.911895E-10 -1.162549E-11 -4.180228E-09  0.000000E+00  0.000000E+00  0.000000E+00  0.000000E+00  0.000000E+00  0.000000E+00  0.000000E+00  0.000000E+00  6.272198E-01  2.955409E-02 -1.796983E-03 -6.265205E-01                                                                                                                                                                                                                                                                                                                                                                                                                                                                                              
  6.250000E+02  1.250000E+02 -5.425000E+03  9.103092E-07 -2.204180E-08 -2.829508E-09 -9.100379E-07  4.088576E-09 -9.945791E-11 -1.276832E-11 -4.087346E-09  0.000000E+00  0.000000E+00  0.000000E+00  0.000000E+00  0.000000E+00  0.000000E+00  0.000000E+00  0.000000E+00  6.127268E-01 -1.537457E-02 -1.973559E-03 -6.125307E-01                                                                                                                                                                                                                                                                                                                                                                                                                                                                                              
  7.600000E+02  1.250000E+02 -5.425000E+03  9.166033E-07 -7.487979E-08 -2.980515E-09 -9.135347E-07  4.116616E-09 -3.378767E-10 -1.344875E-11 -4.102705E-09  0.000000E+00  0.000000E+00  0.000000E+00  0.000000E+00  0.000000E+00  0.000000E+00  0.000000E+00  0.000000E+00  6.171103E-01 -5.222869E-02 -2.078922E-03 -6.148926E-01                                                                                                                                                                                                                                                                                                                                                                                                                                                                                              
  7.800000E+02  1.250000E+02 -5.425000E+03  9.178706E-07 -8.175476E-08 -3.002804E-09 -9.142174E-07  4.122274E-09 -3.688930E-10 -1.354916E-11 -4.105713E-09  0.000000E+00  0.000000E+00  0.000000E+00  0.000000E+00  0.000000E+00  0.000000E+00  0.000000E+00  0.000000E+00  6.179940E-01 -5.702414E-02 -2.094475E-03 -6.153539E-01                                                                                                                                                                                                                                                                                                                                                                                                                                                                                              
  8.000000E+02  1.250000E+02 -5.425000E+03  9.193297E-07 -8.842692E-08 -3.024975E-09 -9.150621E-07  4.128788E-09 -3.989780E-10 -1.364902E-11 -4.109443E-09  0.000000E+00  0.000000E+00  0.000000E+00  0.000000E+00  0.000000E+00  0.000000E+00  0.000000E+00  0.000000E+00  6.190095E-01 -6.167871E-02 -2.109946E-03 -6.159253E-01                                                                                                                                                                                                                                                                                                                                                                                                                                                                                              
  9.350000E+02  1.250000E+02 -5.425000E+03  9.297932E-07 -1.215260E-07 -3.173579E-09 -9.218116E-07  4.175448E-09 -5.482008E-10 -1.431817E-11 -4.139280E-09  0.000000E+00  0.000000E+00  0.000000E+00  0.000000E+00  0.000000E+00  0.000000E+00  0.000000E+00  0.000000E+00  6.262574E-01 -8.476966E-02 -2.213642E-03 -6.204898E-01                                                                                                                                                                                                                                                                                                                                                                                                                                                                                              
  1.185000E+03  1.250000E+02 -5.425000E+03  9.599063E-07 -1.339781E-07 -3.386910E-09 -9.505043E-07  4.309120E-09 -6.042489E-10 -1.527620E-11 -4.266517E-09  0.000000E+00  0.000000E+00  0.000000E+00  0.000000E+00  0.000000E+00  0.000000E+00  0.000000E+00  0.000000E+00  6.466494E-01 -9.345983E-02 -2.362590E-03 -6.398555E-01                                                                                                                                                                                                                                                                                                                                                                                                                                                                                              
  1.435000E+03  1.250000E+02 -5.425000E+03  9.772989E-07 -5.830563E-08 -3.490044E-09 -9.755519E-07  4.385562E-09 -2.629279E-10 -1.573785E-11 -4.377645E-09  0.000000E+00  0.000000E+00  0.000000E+00  0.000000E+00  0.000000E+00  0.000000E+00  0.000000E+00  0.000000E+00  6.580275E-01 -4.067375E-02 -2.434657E-03 -6.567648E-01                                                                                                                                                                                                                                                                                                                                                                                                                                                                                              
  1.250000E+02  1.250000E+02 -5.225000E+03  3.545253E-06  4.912839E-08 -2.081010E-09 -3.544912E-06  1.575545E-08  2.201422E-10 -9.324714E-12 -1.575391E-08  0.000000E+00  0.000000E+00  0.000000E+00  0.000000E+00  0.000000E+00  0.000000E+00  0.000000E+00  0.000000E+00  2.320061E+00  3.307504E-02 -1.401028E-03 -2.319825E+00                                                                                                                                                                                                                                                                                                                                                                                                                                                                                              
  3.750000E+02  1.250000E+02 -5.225000E+03  3.423719E-06  7.905201E-08 -2.246725E-09 -3.422806E-06  1.522216E-08  3.542546E-10 -1.006925E-11 -1.521803E-08  0.000000E+00  0.000000E+00  0.000000E+00  0.000000E+00  0.000000E+00  0.000000E+00  0.000000E+00  0.000000E+00  2.238969E+00  5.322047E-02 -1.512580E-03 -2.238336E+00                                                                                                                                                                                                                                                                                                                                                                                                                                                                                              
  6.250000E+02  1.250000E+02 -5.225000E+03  3.330316E-06 -9.868183E-09 -2.541650E-09 -3.330300E-06  1.481110E-08 -4.423338E-11 -1.139242E-11 -1.481103E-08  0.000000E+00  0.000000E+00  0.000000E+00  0.000000E+00  0.000000E+00  0.000000E+00  0.000000E+00  0.000000E+00  2.176164E+00 -6.644295E-03 -1.711153E-03 -2.176153E+00                                                                                                                                                                                                                                                                                                                                                                                                                                                                                              
  7.600000E+02  1.250000E+02 -5.225000E+03  3.345268E-06 -8.460558E-08 -2.710415E-09 -3.344196E-06  1.487599E-08 -3.791961E-10 -1.214782E-11 -1.487115E-08  0.000000E+00  0.000000E+00  0.000000E+00  0.000000E+00  0.000000E+00  0.000000E+00  0.000000E+00  0.000000E+00  2.186090E+00 -5.696058E-02 -1.824796E-03 -2.185347E+00                                                                                                                                                                                                                                                                                                                                                                                                                                                                                              
  7.800000E+02  1.250000E+02 -5.225000E+03  3.348416E-06 -9.452777E-08 -2.735283E-09 -3.347080E-06  1.488972E-08 -4.236594E-10 -1.225910E-11 -1.488368E-08  0.000000E+00  0.000000E+00  0.000000E+00  0.000000E+00  0.000000E+00  0.000000E+00  0.000000E+00  0.000000E+00  2.188219E+00 -6.364099E-02 -1.841544E-03 -2.187292E+00                                                                                                                                                                                                                                                                                                                                                                                                                                                                                              
  8.000000E+02  1.250000E+02 -5.225000E+03  3.352474E-06 -1.041609E-07 -2.759983E-09 -3.350854E-06  1.490748E-08 -4.668035E-10 -1.236961E-11 -1.490017E-08  0.000000E+00  0.000000E+00  0.000000E+00  0.000000E+00  0.000000E+00  0.000000E+00  0.000000E+00  0.000000E+00  2.191036E+00 -7.012791E-02 -1.858181E-03 -2.189912E+00                                                                                                                                                                                                                                                                                                                                                                                                                                                                                              
  9.350000E+02  1.250000E+02 -5.225000E+03  3.384960E-06 -1.507865E-07 -2.925302E-09 -3.381599E-06  1.504977E-08 -6.755665E-10 -1.310901E-11 -1.503459E-08  0.000000E+00  0.000000E+00  0.000000E+00  0.000000E+00  0.000000E+00  0.000000E+00  0.000000E+00  0.000000E+00  2.213669E+00 -1.015256E-01 -1.969548E-03 -2.211339E+00                                                                                                                                                                                                                                                                                                                                                                                                                                                                                              
  1.185000E+03  1.250000E+02 -5.225000E+03  3.505642E-06 -1.729235E-07 -3.159913E-09 -3.501373E-06  1.557688E-08 -7.745388E-10 -1.415494E-11 -1.555760E-08  0.000000E+00  0.000000E+00  0.000000E+00  0.000000E+00  0.000000E+00  0.000000E+00  0.000000E+00  0.000000E+00  2.294260E+00 -1.164372E-01 -2.127667E-03 -2.291303E+00                                                                                                                                                                                                                                                                                                                                                                                                                                                                                              
  1.435000E+03  1.250000E+02 -5.225000E+03  3.610365E-06 -7.658388E-08 -3.261645E-09 -3.609551E-06  1.603352E-08 -3.429668E-10 -1.460622E-11 -1.602985E-08  0.000000E+00  0.000000E+00  0.000000E+00  0.000000E+00  0.000000E+00  0.000000E+00  0.000000E+00  0.000000E+00  2.363776E+00 -5.156932E-02 -2.196314E-03 -2.363212E+00                                                                                                                                                                                                                                                                                                                                                                                                                                                                                              
  1.250000E+02  1.250000E+02 -4.975000E+03  6.923851E-06  1.410907E-07 -1.076656E-09 -6.922414E-06  3.022755E-08  6.230102E-10 -4.754236E-12 -3.022113E-08  0.000000E+00  0.000000E+00  0.000000E+00  0.000000E+00  0.000000E+00  0.000000E+00  0.000000E+00  0.000000E+00  4.360601E+00  9.136585E-02 -6.971847E-04 -4.359644E+00                                                                                                                                                                                                                                                                                                                                                                                                                                                                                              
  3.750000E+02  1.250000E+02 -4.975000E+03  6.552671E-06  2.394614E-07 -1.325586E-09 -6.548294E-06  2.862315E-08  1.057579E-09 -5.856190E-12 -2.860360E-08  0.000000E+00  0.000000E+00  0.000000E+00  0.000000E+00  0.000000E+00  0.000000E+00  0.000000E+00  0.000000E+00  4.076817E+00  1.550006E-01 -8.574585E-04 -4.073869E+00                                                                                                                                                                                                                                                                                                                                                                                                                                                                                              
  6.250000E+02  1.250000E+02 -4.975000E+03  6.293418E-06  4.092466E-08 -1.796157E-09 -6.293285E-06  2.749570E-08  1.807400E-10 -7.937306E-12 -2.749510E-08  0.000000E+00  0.000000E+00  0.000000E+00  0.000000E+00  0.000000E+00  0.000000E+00  0.000000E+00  0.000000E+00  3.873422E+00  2.651539E-02 -1.160525E-03 -3.873331E+00                                                                                                                                                                                                                                                                                                                                                                                                                                                                                              
  7.600000E+02  1.250000E+02 -4.975000E+03  6.316902E-06 -1.272006E-07 -2.029091E-09 -6.315621E-06  2.759536E-08 -5.620363E-10 -8.965549E-12 -2.758963E-08  0.000000E+00  0.000000E+00  0.000000E+00  0.000000E+00  0.000000E+00  0.000000E+00  0.000000E+00  0.000000E+00  3.890449E+00 -8.219480E-02 -1.311122E-03 -3.889580E+00                                                                                                                                                                                                                                                                                                                                                                                                                                                                                              
  7.800000E+02  1.250000E+02 -4.975000E+03  6.323935E-06 -1.516420E-07 -2.063392E-09 -6.322117E-06  2.762575E-08 -6.700156E-10 -9.116933E-12 -2.761763E-08  0.000000E+00  0.000000E+00  0.000000E+00  0.000000E+00  0.000000E+00  0.000000E+00  0.000000E+00  0.000000E+00  3.895991E+00 -9.799840E-02 -1.333338E-03 -3.894758E+00                                                                                                                                                                                                                                                                                                                                                                                                                                                                                              
  8.000000E+02  1.250000E+02 -4.975000E+03  6.336237E-06 -1.754224E-07 -2.097536E-09 -6.333808E-06  2.767960E-08 -7.750198E-10 -9.267644E-12 -2.766874E-08  0.000000E+00  0.000000E+00  0.000000E+00  0.000000E+00  0.000000E+00  0.000000E+00  0.000000E+00  0.000000E+00  3.906711E+00 -1.134257E-01 -1.355536E-03 -3.905063E+00                                                                                                                                                                                                                                                                                                                                                                                                                                                                                              
  9.350000E+02  1.250000E+02 -4.975000E+03  6.442855E-06 -2.758602E-07 -2.326143E-09 -6.436946E-06  2.814695E-08 -1.218175E-09 -1.027652E-11 -2.812057E-08  0.000000E+00  0.000000E+00  0.000000E+00  0.000000E+00  0.000000E+00  0.000000E+00  0.000000E+00  0.000000E+00  4.000972E+00 -1.785528E-01 -1.504554E-03 -3.996985E+00                                                                                                                                                                                                                                                                                                                                                                                                                                                                                              
  1.185000E+03  1.250000E+02 -4.975000E+03  6.741510E-06 -3.383575E-07 -2.651921E-09 -6.733013E-06  2.943365E-08 -1.493456E-09 -1.170814E-11 -2.939573E-08  0.000000E+00  0.000000E+00  0.000000E+00  0.000000E+00  0.000000E+00  0.000000E+00  0.000000E+00  0.000000E+00  4.229143E+00 -2.191454E-01 -1.717020E-03 -4.223461E+00                                                                                                                                                                                                                                                                                                                                                                                                                                                                                              
  1.435000E+03  1.250000E+02 -4.975000E+03  7.032374E-06 -1.560323E-07 -2.734009E-09 -7.030642E-06  3.068171E-08 -6.884922E-10 -1.206360E-11 -3.067398E-08  0.000000E+00  0.000000E+00  0.000000E+00  0.000000E+00  0.000000E+00  0.000000E+00  0.000000E+00  0.000000E+00  4.447081E+00 -1.010953E-01 -1.771387E-03 -4.445931E+00                                                                                                                                                                                                                                                                                                                                                                                                                                                                                              
  1.250000E+02  1.250000E+02 -4.725000E+03  1.068058E-05  3.331525E-07  3.849189E-10 -1.067539E-05  4.556024E-08  1.436030E-09  1.660797E-12 -4.553761E-08  0.000000E+00  0.000000E+00  0.000000E+00  0.000000E+00  0.000000E+00  0.000000E+00  0.000000E+00  0.000000E+00  6.072720E+00  2.063630E-01  2.384782E-04 -6.069212E+00                                                                                                                                                                                                                                                                                                                                                                                                                                                                                              
  3.750000E+02  1.250000E+02 -4.725000E+03  9.695869E-06  5.399938E-07  1.914574E-11 -9.680820E-06  4.120798E-08  2.327150E-09  8.255572E-14 -4.114222E-08  0.000000E+00  0.000000E+00  0.000000E+00  0.000000E+00  0.000000E+00  0.000000E+00  0.000000E+00  0.000000E+00  4.969516E+00  3.319707E-01  1.173919E-05 -4.958415E+00                                                                                                                                                                                                                                                                                                                                                                                                                                                                                              
  6.250000E+02  1.250000E+02 -4.725000E+03  9.176509E-06  1.385770E-07 -6.960243E-10 -9.175462E-06  3.892595E-08  5.970521E-10 -2.998640E-12 -3.892137E-08  0.000000E+00  0.000000E+00  0.000000E+00  0.000000E+00  0.000000E+00  0.000000E+00  0.000000E+00  0.000000E+00  4.448014E+00  8.484788E-02 -4.151347E-04 -4.447205E+00                                                                                                                                                                                                                                                                                                                                                                                                                                                                                              
  7.600000E+02  1.250000E+02 -4.725000E+03  9.146613E-06 -1.627501E-07 -9.613261E-10 -9.145165E-06  3.880239E-08 -7.011054E-10 -4.141336E-12 -3.879605E-08  0.000000E+00  0.000000E+00  0.000000E+00  0.000000E+00  0.000000E+00  0.000000E+00  0.000000E+00  0.000000E+00  4.442451E+00 -9.721410E-02 -5.739464E-04 -4.441388E+00                                                                                                                                                                                                                                                                                                                                                                                                                                                                                              
  7.800000E+02  1.250000E+02 -4.725000E+03  9.148962E-06 -2.157491E-07 -1.001768E-09 -9.146417E-06  3.881404E-08 -9.294528E-10 -4.315619E-12 -3.880291E-08  0.000000E+00  0.000000E+00  0.000000E+00  0.000000E+00  0.000000E+00  0.000000E+00  0.000000E+00  0.000000E+00  4.448099E+00 -1.290264E-01 -5.983844E-04 -4.446227E+00                                                                                                                                                                                                                                                                                                                                                                                                                                                                                              
  8.000000E+02  1.250000E+02 -4.725000E+03  9.156231E-06 -2.701577E-07 -1.044143E-09 -9.152244E-06  3.884876E-08 -1.164056E-09 -4.498556E-12 -3.883132E-08  0.000000E+00  0.000000E+00  0.000000E+00  0.000000E+00  0.000000E+00  0.000000E+00  0.000000E+00  0.000000E+00  4.459741E+00 -1.627224E-01 -6.245118E-04 -4.456772E+00                                                                                                                                                                                                                                                                                                                                                                                                                                                                                              
  9.350000E+02  1.250000E+02 -4.725000E+03  9.497486E-06 -4.624415E-07 -1.342492E-09 -9.486221E-06  4.034152E-08 -1.992984E-09 -5.788664E-12 -4.029226E-08  0.000000E+00  0.000000E+00  0.000000E+00  0.000000E+00  0.000000E+00  0.000000E+00  0.000000E+00  0.000000E+00  4.778574E+00 -2.830418E-01 -8.123322E-04 -4.770184E+00                                                                                                                                                                                                                                                                                                                                                                                                                                                                                              
  1.185000E+03  1.250000E+02 -4.725000E+03  1.006569E-05 -6.248233E-07 -1.842240E-09 -1.004628E-05  4.285709E-08 -2.693160E-09 -7.946014E-12 -4.277239E-08  0.000000E+00  0.000000E+00  0.000000E+00  0.000000E+00  0.000000E+00  0.000000E+00  0.000000E+00  0.000000E+00  5.439465E+00 -3.868910E-01 -1.133178E-03 -5.425689E+00                                                                                                                                                                                                                                                                                                                                                                                                                                                                                              