Title="TOUGHREACT V3.30-OMP flowvector.tec: Liq & Gas Fluxes (kg/s/m^2), Pore Velocities (m/s), & Heat Fluxes (J/s/m2)"                                                                                                                                                                                                                                                                                                                                                                                                                                                                                                                                                                                                                                                                                                         
Variables= "X(m)"     "Y(m)"      "Z(m)"     "FluxLiq"   "FluxLiq_X"   "FluxLiq_Y"   "FluxLiq_Z"   "PorVelLiq"  "PorVelLiqX"  "PorVelLiqY"  "PorVelLiqZ"     "FluxGas"   "FluxGas_X"   "FluxGas_Y"   "FluxGas_Z"   "PorVelGas"  "PorVelGasX"  "PorVelGasY"  "PorVelGasZ"    "HeatFlux"  "HeatFlux_X"  "HeatFlux_Y"  "HeatFlux_Z"                                                                                                                                                                                                                                                                                                                                                                                                                                                                                                
Zone T= "6.70000000E+09 sec" I=     9 J=    10 K=    23 F=Point
  1.250000E+02  1.250000E+02 -5.425000E+03  9.539849E-07  2.811141E-08 -4.344404E-09 -9.535608E-07  3.541069E-09  1.048683E-10 -1.620616E-11 -3.539479E-09  0.000000E+00  0.000000E+00  0.000000E+00  0.000000E+00  0.000000E+00  0.000000E+00  0.000000E+00  0.000000E+00  6.883828E-01  2.108353E-02 -3.258387E-03 -6.880522E-01                                                                                                                                                                                                                                                                                                                                                                                                                                                                                              
  3.750000E+02  1.250000E+02 -5.425000E+03  9.277599E-07  4.032976E-08 -4.587681E-09 -9.268715E-07  3.444392E-09  1.504536E-10 -1.711569E-11 -3.441062E-09  0.000000E+00  0.000000E+00  0.000000E+00  0.000000E+00  0.000000E+00  0.000000E+00  0.000000E+00  0.000000E+00  6.693970E-01  3.024769E-02 -3.441052E-03 -6.687044E-01                                                                                                                                                                                                                                                                                                                                                                                                                                                                                              
  6.250000E+02  1.250000E+02 -5.425000E+03  9.077613E-07 -2.329579E-08 -5.009580E-09 -9.074485E-07  3.370484E-09 -8.691110E-11 -1.869074E-11 -3.369312E-09  0.000000E+00  0.000000E+00  0.000000E+00  0.000000E+00  0.000000E+00  0.000000E+00  0.000000E+00  0.000000E+00  6.548763E-01 -1.747531E-02 -3.757738E-03 -6.546324E-01                                                                                                                                                                                                                                                                                                                                                                                                                                                                                              
  7.600000E+02  1.250000E+02 -5.425000E+03  9.134106E-07 -7.444736E-08 -5.285894E-09 -9.103562E-07  3.391277E-09 -2.777463E-10 -1.972018E-11 -3.379827E-09  0.000000E+00  0.000000E+00  0.000000E+00  0.000000E+00  0.000000E+00  0.000000E+00  0.000000E+00  0.000000E+00  6.591194E-01 -5.584365E-02 -3.965050E-03 -6.567375E-01                                                                                                                                                                                                                                                                                                                                                                                                                                                                                              
  7.800000E+02  1.250000E+02 -5.425000E+03  9.145750E-07 -8.120507E-08 -5.327058E-09 -9.109472E-07  3.395575E-09 -3.029534E-10 -1.987351E-11 -3.381975E-09  0.000000E+00  0.000000E+00  0.000000E+00  0.000000E+00  0.000000E+00  0.000000E+00  0.000000E+00  0.000000E+00  6.599971E-01 -6.091280E-02 -3.995935E-03 -6.571681E-01                                                                                                                                                                                                                                                                                                                                                                                                                                                                                              
  8.000000E+02  1.250000E+02 -5.425000E+03  9.159349E-07 -8.777996E-08 -5.368404E-09 -9.117032E-07  3.400596E-09 -3.274651E-10 -2.002749E-11 -3.384733E-09  0.000000E+00  0.000000E+00  0.000000E+00  0.000000E+00  0.000000E+00  0.000000E+00  0.000000E+00  0.000000E+00  6.610270E-01 -6.584508E-02 -4.026958E-03 -6.577271E-01                                                                                                                                                                                                                                                                                                                                                                                                                                                                                              
  9.350000E+02  1.250000E+02 -5.425000E+03  9.257788E-07 -1.211979E-07 -5.648303E-09 -9.177938E-07  3.436902E-09 -4.520316E-10 -2.106965E-11 -3.406981E-09  0.000000E+00  0.000000E+00  0.000000E+00  0.000000E+00  0.000000E+00  0.000000E+00  0.000000E+00  0.000000E+00  6.684358E-01 -9.091285E-02 -4.236960E-03 -6.622109E-01                                                                                                                                                                                                                                                                                                                                                                                                                                                                                              
  1.185000E+03  1.250000E+02 -5.425000E+03  9.543161E-07 -1.372890E-07 -6.128562E-09 -9.443693E-07  3.541603E-09 -5.119350E-10 -2.285427E-11 -3.504333E-09  0.000000E+00  0.000000E+00  0.000000E+00  0.000000E+00  0.000000E+00  0.000000E+00  0.000000E+00  0.000000E+00  6.892439E-01 -1.029828E-01 -4.597229E-03 -6.814914E-01                                                                                                                                                                                                                                                                                                                                                                                                                                                                                              
  1.435000E+03  1.250000E+02 -5.425000E+03  9.749307E-07 -6.159919E-08 -6.426679E-09 -9.729616E-07  3.616648E-09 -2.296649E-10 -2.396010E-11 -3.609269E-09  0.000000E+00  0.000000E+00  0.000000E+00  0.000000E+00  0.000000E+00  0.000000E+00  0.000000E+00  0.000000E+00  7.037648E-01 -4.620643E-02 -4.820830E-03 -7.022298E-01                                                                                                                                                                                                                                                                                                                                                                                                                                                                                              
  1.250000E+02  1.250000E+02 -5.225000E+03  3.532799E-06  4.851243E-08 -3.808079E-09 -3.532464E-06  1.297498E-08  1.796625E-10 -1.410269E-11 -1.297373E-08  0.000000E+00  0.000000E+00  0.000000E+00  0.000000E+00  0.000000E+00  0.000000E+00  0.000000E+00  0.000000E+00  2.472600E+00  3.501367E-02 -2.748480E-03 -2.472351E+00                                                                                                                                                                                                                                                                                                                                                                                                                                                                                              
  3.750000E+02  1.250000E+02 -5.225000E+03  3.410010E-06  7.585114E-08 -4.080640E-09 -3.409164E-06  1.252766E-08  2.809277E-10 -1.511482E-11 -1.252450E-08  0.000000E+00  0.000000E+00  0.000000E+00  0.000000E+00  0.000000E+00  0.000000E+00  0.000000E+00  0.000000E+00  2.379155E+00  5.474284E-02 -2.944831E-03 -2.378524E+00                                                                                                                                                                                                                                                                                                                                                                                                                                                                                              
  6.250000E+02  1.250000E+02 -5.225000E+03  3.325152E-06 -1.130409E-08 -4.531020E-09 -3.325129E-06  1.221787E-08 -4.187433E-11 -1.678472E-11 -1.221779E-08  0.000000E+00  0.000000E+00  0.000000E+00  0.000000E+00  0.000000E+00  0.000000E+00  0.000000E+00  0.000000E+00  2.314801E+00 -8.155280E-03 -3.269582E-03 -2.314784E+00                                                                                                                                                                                                                                                                                                                                                                                                                                                                                              
  7.600000E+02  1.250000E+02 -5.225000E+03  3.336854E-06 -8.216087E-08 -4.816047E-09 -3.335838E-06  1.225971E-08 -3.043350E-10 -1.783905E-11 -1.225592E-08  0.000000E+00  0.000000E+00  0.000000E+00  0.000000E+00  0.000000E+00  0.000000E+00  0.000000E+00  0.000000E+00  2.323295E+00 -5.928728E-02 -3.475294E-03 -2.322536E+00                                                                                                                                                                                                                                                                                                                                                                                                                                                                                              
  7.800000E+02  1.250000E+02 -5.225000E+03  3.339518E-06 -9.181063E-08 -4.858514E-09 -3.338253E-06  1.226934E-08 -3.400736E-10 -1.799611E-11 -1.226461E-08  0.000000E+00  0.000000E+00  0.000000E+00  0.000000E+00  0.000000E+00  0.000000E+00  0.000000E+00  0.000000E+00  2.325334E+00 -6.625227E-02 -3.505960E-03 -2.324387E+00                                                                                                                                                                                                                                                                                                                                                                                                                                                                                              
  8.000000E+02  1.250000E+02 -5.225000E+03  3.343358E-06 -1.011910E-07 -4.901221E-09 -3.341823E-06  1.228335E-08 -3.747969E-10 -1.815406E-11 -1.227762E-08  0.000000E+00  0.000000E+00  0.000000E+00  0.000000E+00  0.000000E+00  0.000000E+00  0.000000E+00  0.000000E+00  2.328553E+00 -7.302756E-02 -3.536851E-03 -2.327405E+00                                                                                                                                                                                                                                                                                                                                                                                                                                                                                              
  9.350000E+02  1.250000E+02 -5.225000E+03  3.372994E-06 -1.473187E-07 -5.190308E-09 -3.369771E-06  1.239131E-08 -5.454990E-10 -1.922288E-11 -1.237928E-08  0.000000E+00  0.000000E+00  0.000000E+00  0.000000E+00  0.000000E+00  0.000000E+00  0.000000E+00  0.000000E+00  2.352772E+00 -1.063326E-01 -3.745963E-03 -2.350365E+00                                                                                                                                                                                                                                                                                                                                                                                                                                                                                              
  1.185000E+03  1.250000E+02 -5.225000E+03  3.480757E-06 -1.768432E-07 -5.697342E-09 -3.476257E-06  1.278136E-08 -6.546435E-10 -2.109295E-11 -1.276456E-08  0.000000E+00  0.000000E+00  0.000000E+00  0.000000E+00  0.000000E+00  0.000000E+00  0.000000E+00  0.000000E+00  2.433777E+00 -1.276575E-01 -4.112506E-03 -2.430424E+00                                                                                                                                                                                                                                                                                                                                                                                                                                                                                              
  1.435000E+03  1.250000E+02 -5.225000E+03  3.604740E-06 -8.242293E-08 -6.022270E-09 -3.603793E-06  1.323035E-08 -3.050633E-10 -2.228878E-11 -1.322682E-08  0.000000E+00  0.000000E+00  0.000000E+00  0.000000E+00  0.000000E+00  0.000000E+00  0.000000E+00  0.000000E+00  2.527148E+00 -5.950301E-02 -4.347665E-03 -2.526444E+00                                                                                                                                                                                                                                                                                                                                                                                                                                                                                              
  1.250000E+02  1.250000E+02 -4.975000E+03  6.901755E-06  1.331427E-07 -2.358579E-09 -6.900470E-06  2.485493E-08  4.856132E-10 -8.604359E-12 -2.485018E-08  0.000000E+00  0.000000E+00  0.000000E+00  0.000000E+00  0.000000E+00  0.000000E+00  0.000000E+00  0.000000E+00  4.542516E+00  9.214175E-02 -1.631974E-03 -4.541581E+00                                                                                                                                                                                                                                                                                                                                                                                                                                                                                              
  3.750000E+02  1.250000E+02 -4.975000E+03  6.532066E-06  2.170472E-07 -2.755604E-09 -6.528458E-06  2.351894E-08  7.916766E-10 -1.005328E-11 -2.350561E-08  0.000000E+00  0.000000E+00  0.000000E+00  0.000000E+00  0.000000E+00  0.000000E+00  0.000000E+00  0.000000E+00  4.205438E+00  1.499516E-01 -1.898265E-03 -4.202763E+00                                                                                                                                                                                                                                                                                                                                                                                                                                                                                              
  6.250000E+02  1.250000E+02 -4.975000E+03  6.315362E-06  3.315909E-08 -3.310621E-09 -6.315274E-06  2.273489E-08  1.209444E-10 -1.207818E-11 -2.273456E-08  0.000000E+00  0.000000E+00  0.000000E+00  0.000000E+00  0.000000E+00  0.000000E+00  0.000000E+00  0.000000E+00  4.012409E+00  2.295384E-02 -2.273606E-03 -4.012343E+00                                                                                                                                                                                                                                                                                                                                                                                                                                                                                              
  7.600000E+02  1.250000E+02 -4.975000E+03  6.331015E-06 -1.123113E-07 -3.626858E-09 -6.330018E-06  2.278969E-08 -4.097083E-10 -1.323061E-11 -2.278601E-08  0.000000E+00  0.000000E+00  0.000000E+00  0.000000E+00  0.000000E+00  0.000000E+00  0.000000E+00  0.000000E+00  4.025669E+00 -7.715165E-02 -2.491220E-03 -4.024929E+00                                                                                                                                                                                                                                                                                                                                                                                                                                                                                              
  7.800000E+02  1.250000E+02 -4.975000E+03  6.336719E-06 -1.338130E-07 -3.674265E-09 -6.335305E-06  2.281021E-08 -4.881431E-10 -1.340342E-11 -2.280499E-08  0.000000E+00  0.000000E+00  0.000000E+00  0.000000E+00  0.000000E+00  0.000000E+00  0.000000E+00  0.000000E+00  4.030914E+00 -9.195328E-02 -2.524038E-03 -4.029864E+00                                                                                                                                                                                                                                                                                                                                                                                                                                                                                              
  8.000000E+02  1.250000E+02 -4.975000E+03  6.349109E-06 -1.546488E-07 -3.722731E-09 -6.347224E-06  2.285554E-08 -5.641361E-10 -1.358037E-11 -2.284858E-08  0.000000E+00  0.000000E+00  0.000000E+00  0.000000E+00  0.000000E+00  0.000000E+00  0.000000E+00  0.000000E+00  4.043464E+00 -1.064084E-01 -2.558140E-03 -4.042063E+00                                                                                                                                                                                                                                                                                                                                                                                                                                                                                              
  9.350000E+02  1.250000E+02 -4.975000E+03  6.440202E-06 -2.457250E-07 -4.050996E-09 -6.435511E-06  2.318766E-08 -8.961358E-10 -1.477850E-11 -2.317033E-08  0.000000E+00  0.000000E+00  0.000000E+00  0.000000E+00  0.000000E+00  0.000000E+00  0.000000E+00  0.000000E+00  4.133669E+00 -1.695891E-01 -2.789420E-03 -4.130188E+00                                                                                                                                                                                                                                                                                                                                                                                                                                                                                              
  1.185000E+03  1.250000E+02 -4.975000E+03  6.675343E-06 -3.330356E-07 -4.681540E-09 -6.667029E-06  2.403391E-08 -1.214211E-09 -1.707335E-11 -2.400321E-08  0.000000E+00  0.000000E+00  0.000000E+00  0.000000E+00  0.000000E+00  0.000000E+00  0.000000E+00  0.000000E+00  4.348863E+00 -2.305383E-01 -3.234240E-03 -4.342747E+00                                                                                                                                                                                                                                                                                                                                                                                                                                                                                              
  1.435000E+03  1.250000E+02 -4.975000E+03  7.038822E-06 -1.697121E-07 -5.146803E-09 -7.036774E-06  2.534197E-08 -6.186576E-10 -1.876484E-11 -2.533441E-08  0.000000E+00  0.000000E+00  0.000000E+00  0.000000E+00  0.000000E+00  0.000000E+00  0.000000E+00  0.000000E+00  4.681588E+00 -1.176999E-01 -3.569203E-03 -4.680107E+00                                                                                                                                                                                                                                                                                                                                                                                                                                                                                              
  1.250000E+02  1.250000E+02 -4.725000E+03  1.059922E-05  2.479370E-07 -2.966018E-10 -1.059632E-05  3.706499E-08  8.782932E-10 -1.052471E-12 -3.705458E-08  0.000000E+00  0.000000E+00  0.000000E+00  0.000000E+00  0.000000E+00  0.000000E+00  0.000000E+00  0.000000E+00  5.811776E+00  1.583155E-01 -1.889788E-04 -5.809620E+00                                                                                                                                                                                                                                                                                                                                                                                                                                                                                              
  3.750000E+02  1.250000E+02 -4.725000E+03  9.704161E-06  3.850335E-07 -8.313579E-10 -9.696520E-06  3.383224E-08  1.363210E-09 -2.943378E-12 -3.380476E-08  0.000000E+00  0.000000E+00  0.000000E+00  0.000000E+00  0.000000E+00  0.000000E+00  0.000000E+00  0.000000E+00  4.908742E+00  2.428594E-01 -5.121628E-04 -4.902731E+00                                                                                                                                                                                                                                                                                                                                                                                                                                                                                              
  6.250000E+02  1.250000E+02 -4.725000E+03  9.326951E-06  8.862929E-08 -1.325775E-09 -9.326530E-06  3.246801E-08  3.135496E-10 -4.687890E-12 -3.246650E-08  0.000000E+00  0.000000E+00  0.000000E+00  0.000000E+00  0.000000E+00  0.000000E+00  0.000000E+00  0.000000E+00  4.540190E+00  5.524831E-02 -8.003226E-04 -4.539854E+00                                                                                                                                                                                                                                                                                                                                                                                                                                                                                              
  7.600000E+02  1.250000E+02 -4.725000E+03  9.307591E-06 -1.144461E-07 -1.564154E-09 -9.306887E-06  3.240307E-08 -4.046631E-10 -5.530670E-12 -3.240054E-08  0.000000E+00  0.000000E+00  0.000000E+00  0.000000E+00  0.000000E+00  0.000000E+00  0.000000E+00  0.000000E+00  4.538358E+00 -6.921382E-02 -9.453426E-04 -4.537830E+00                                                                                                                                                                                                                                                                                                                                                                                                                                                                                              
  7.800000E+02  1.250000E+02 -4.725000E+03  9.312283E-06 -1.496787E-07 -1.601202E-09 -9.311080E-06  3.242074E-08 -5.292731E-10 -5.661833E-12 -3.241642E-08  0.000000E+00  0.000000E+00  0.000000E+00  0.000000E+00  0.000000E+00  0.000000E+00  0.000000E+00  0.000000E+00  4.544873E+00 -9.068713E-02 -9.683203E-04 -4.543968E+00                                                                                                                                                                                                                                                                                                                                                                                                                                                                                              
  8.000000E+02  1.250000E+02 -4.725000E+03  9.324163E-06 -1.856449E-07 -1.641480E-09 -9.322314E-06  3.246588E-08 -6.566073E-10 -5.805018E-12 -3.245924E-08  0.000000E+00  0.000000E+00  0.000000E+00  0.000000E+00  0.000000E+00  0.000000E+00  0.000000E+00  0.000000E+00  4.559422E+00 -1.133425E-01 -9.944713E-04 -4.558013E+00                                                                                                                                                                                                                                                                                                                                                                                                                                                                                              
  9.350000E+02  1.250000E+02 -4.725000E+03  9.586599E-06 -3.045462E-07 -1.923216E-09 -9.581760E-06  3.340763E-08 -1.077850E-09 -6.807206E-12 -3.339023E-08  0.000000E+00  0.000000E+00  0.000000E+00  0.000000E+00  0.000000E+00  0.000000E+00  0.000000E+00  0.000000E+00  4.797239E+00 -1.897439E-01 -1.179385E-03 -4.793485E+00                                                                                                                                                                                                                                                                                                                                                                                                                                                                                              
  1.185000E+03  1.250000E+02 -4.725000E+03  9.908455E-06 -4.894674E-07 -2.602976E-09 -9.896358E-06  3.458882E-08 -1.734199E-09 -9.224636E-12 -3.454531E-08  0.000000E+00  0.000000E+00  0.000000E+00  0.000000E+00  0.000000E+00  0.000000E+00  0.000000E+00  0.000000E+00  5.173824E+00 -3.132335E-01 -1.633380E-03 -5.164334E+00                                                                                                                                                                                                                                                                                                                                                                                                                                                                                              