Title="TOUGHREACT V3.30-OMP flowvector.tec: Liq & Gas Fluxes (kg/s/m^2), Pore Velocities (m/s), & Heat Fluxes (J/s/m2)"                                                                                                                                                                                                                                                                                                                                                                                                                                                                                                                                                                                                                                                                                                         
Variables= "X(m)"     "Y(m)"      "Z(m)"     "FluxLiq"   "FluxLiq_X"   "FluxLiq_Y"   "FluxLiq_Z"   "PorVelLiq"  "PorVelLiqX"  "PorVelLiqY"  "PorVelLiqZ"     "FluxGas"   "FluxGas_X"   "FluxGas_Y"   "FluxGas_Z"   "PorVelGas"  "PorVelGasX"  "PorVelGasY"  "PorVelGasZ"    "HeatFlux"  "HeatFlux_X"  "HeatFlux_Y"  "HeatFlux_Z"                                                                                                                                                                                                                                                                                                                                                                                                                                                                                                
Zone T= "2.30000000E+10 sec" I=     9 J=    10 K=    23 F=Point
  1.250000E+02  1.250000E+02 -5.425000E+03  9.245796E-07  3.340356E-08 -7.386824E-09 -9.239465E-07  1.959619E-09  7.124340E-11 -1.575400E-11 -1.958260E-09  0.000000E+00  0.000000E+00  0.000000E+00  0.000000E+00  0.000000E+00  0.000000E+00  0.000000E+00  0.000000E+00  8.242658E-01  3.156751E-02 -6.981159E-03 -8.236315E-01                                                                                                                                                                                                                                                                                                                                                                                                                                                                                              
  3.750000E+02  1.250000E+02 -5.425000E+03  8.918182E-07  4.538727E-08 -7.746348E-09 -8.906288E-07  1.890420E-09  9.680617E-11 -1.652322E-11 -1.887868E-09  0.000000E+00  0.000000E+00  0.000000E+00  0.000000E+00  0.000000E+00  0.000000E+00  0.000000E+00  0.000000E+00  7.935435E-01  4.289317E-02 -7.321750E-03 -7.923496E-01                                                                                                                                                                                                                                                                                                                                                                                                                                                                                              
  6.250000E+02  1.250000E+02 -5.425000E+03  8.676019E-07 -3.636891E-08 -8.363440E-09 -8.667990E-07  1.839226E-09 -7.757510E-11 -1.784074E-11 -1.837502E-09  0.000000E+00  0.000000E+00  0.000000E+00  0.000000E+00  0.000000E+00  0.000000E+00  0.000000E+00  0.000000E+00  7.712865E-01 -3.438201E-02 -7.906304E-03 -7.704792E-01                                                                                                                                                                                                                                                                                                                                                                                                                                                                                              
  7.600000E+02  1.250000E+02 -5.425000E+03  8.767998E-07 -1.009779E-07 -8.762146E-09 -8.709217E-07  1.858644E-09 -2.153869E-10 -1.868925E-11 -1.846027E-09  0.000000E+00  0.000000E+00  0.000000E+00  0.000000E+00  0.000000E+00  0.000000E+00  0.000000E+00  0.000000E+00  7.800673E-01 -9.545474E-02 -8.283147E-03 -7.741606E-01                                                                                                                                                                                                                                                                                                                                                                                                                                                                                              
  7.800000E+02  1.250000E+02 -5.425000E+03  8.786463E-07 -1.094101E-07 -8.821503E-09 -8.717631E-07  1.862556E-09 -2.333683E-10 -1.881554E-11 -1.847782E-09  0.000000E+00  0.000000E+00  0.000000E+00  0.000000E+00  0.000000E+00  0.000000E+00  0.000000E+00  0.000000E+00  7.818719E-01 -1.034278E-01 -8.339287E-03 -7.749560E-01                                                                                                                                                                                                                                                                                                                                                                                                                                                                                              
  8.000000E+02  1.250000E+02 -5.425000E+03  8.808107E-07 -1.175781E-07 -8.881129E-09 -8.728826E-07  1.867155E-09 -2.507728E-10 -1.894242E-11 -1.850142E-09  0.000000E+00  0.000000E+00  0.000000E+00  0.000000E+00  0.000000E+00  0.000000E+00  0.000000E+00  0.000000E+00  7.840731E-01 -1.111525E-01 -8.395793E-03 -7.761090E-01                                                                                                                                                                                                                                                                                                                                                                                                                                                                                              
  9.350000E+02  1.250000E+02 -5.425000E+03  8.952374E-07 -1.578578E-07 -9.283762E-09 -8.811610E-07  1.897679E-09 -3.365848E-10 -1.979868E-11 -1.867486E-09  0.000000E+00  0.000000E+00  0.000000E+00  0.000000E+00  0.000000E+00  0.000000E+00  0.000000E+00  0.000000E+00  7.981468E-01 -1.492223E-01 -8.776779E-03 -7.840242E-01                                                                                                                                                                                                                                                                                                                                                                                                                                                                                              
  1.185000E+03  1.250000E+02 -5.425000E+03  9.312407E-07 -1.752960E-07 -9.960181E-09 -9.145389E-07  1.973227E-09 -3.736577E-10 -2.123261E-11 -1.937409E-09  0.000000E+00  0.000000E+00  0.000000E+00  0.000000E+00  0.000000E+00  0.000000E+00  0.000000E+00  0.000000E+00  8.314573E-01 -1.656964E-01 -9.415281E-03 -8.147253E-01                                                                                                                                                                                                                                                                                                                                                                                                                                                                                              
  1.435000E+03  1.250000E+02 -5.425000E+03  9.537009E-07 -7.823148E-08 -1.037820E-08 -9.504302E-07  2.019889E-09 -1.667265E-10 -2.211664E-11 -2.012874E-09  0.000000E+00  0.000000E+00  0.000000E+00  0.000000E+00  0.000000E+00  0.000000E+00  0.000000E+00  0.000000E+00  8.518737E-01 -7.394579E-02 -9.810029E-03 -8.486016E-01                                                                                                                                                                                                                                                                                                                                                                                                                                                                                              
  1.250000E+02  1.250000E+02 -5.225000E+03  3.444551E-06  5.760086E-08 -6.569637E-09 -3.444063E-06  7.193893E-09  1.215792E-10 -1.386803E-11 -7.192852E-09  0.000000E+00  0.000000E+00  0.000000E+00  0.000000E+00  0.000000E+00  0.000000E+00  0.000000E+00  0.000000E+00  2.851987E+00  5.137723E-02 -5.859014E-03 -2.851518E+00                                                                                                                                                                                                                                                                                                                                                                                                                                                                                              
  3.750000E+02  1.250000E+02 -5.225000E+03  3.293532E-06  8.770576E-08 -6.949618E-09 -3.292357E-06  6.878510E-09  1.851254E-10 -1.466981E-11 -6.876002E-09  0.000000E+00  0.000000E+00  0.000000E+00  0.000000E+00  0.000000E+00  0.000000E+00  0.000000E+00  0.000000E+00  2.703865E+00  7.817591E-02 -6.185800E-03 -2.702727E+00                                                                                                                                                                                                                                                                                                                                                                                                                                                                                              
  6.250000E+02  1.250000E+02 -5.225000E+03  3.189347E-06 -2.206846E-08 -7.585611E-09 -3.189262E-06  6.661460E-09 -4.657772E-11 -1.601249E-11 -6.661278E-09  0.000000E+00  0.000000E+00  0.000000E+00  0.000000E+00  0.000000E+00  0.000000E+00  0.000000E+00  0.000000E+00  2.607204E+00 -1.959964E-02 -6.746211E-03 -2.607121E+00                                                                                                                                                                                                                                                                                                                                                                                                                                                                                              
  7.600000E+02  1.250000E+02 -5.225000E+03  3.206446E-06 -1.103661E-07 -7.988408E-09 -3.204536E-06  6.696342E-09 -2.329505E-10 -1.686079E-11 -6.692268E-09  0.000000E+00  0.000000E+00  0.000000E+00  0.000000E+00  0.000000E+00  0.000000E+00  0.000000E+00  0.000000E+00  2.622114E+00 -9.815611E-02 -7.104580E-03 -2.620267E+00                                                                                                                                                                                                                                                                                                                                                                                                                                                                                              
  7.800000E+02  1.250000E+02 -5.225000E+03  3.210517E-06 -1.222446E-07 -8.048705E-09 -3.208179E-06  6.704788E-09 -2.580195E-10 -1.698785E-11 -6.699800E-09  0.000000E+00  0.000000E+00  0.000000E+00  0.000000E+00  0.000000E+00  0.000000E+00  0.000000E+00  0.000000E+00  2.626118E+00 -1.087462E-01 -7.158642E-03 -2.623856E+00                                                                                                                                                                                                                                                                                                                                                                                                                                                                                              
  8.000000E+02  1.250000E+02 -5.225000E+03  3.216891E-06 -1.336580E-07 -8.110129E-09 -3.214103E-06  6.718230E-09 -2.820957E-10 -1.711759E-11 -6.712283E-09  0.000000E+00  0.000000E+00  0.000000E+00  0.000000E+00  0.000000E+00  0.000000E+00  0.000000E+00  0.000000E+00  2.633266E+00 -1.189551E-01 -7.214739E-03 -2.630567E+00                                                                                                                                                                                                                                                                                                                                                                                                                                                                                              
  9.350000E+02  1.250000E+02 -5.225000E+03  3.256157E-06 -1.884086E-07 -8.520287E-09 -3.250691E-06  6.799926E-09 -3.975460E-10 -1.798210E-11 -6.788271E-09  0.000000E+00  0.000000E+00  0.000000E+00  0.000000E+00  0.000000E+00  0.000000E+00  0.000000E+00  0.000000E+00  2.672337E+00 -1.678531E-01 -7.584901E-03 -2.667050E+00                                                                                                                                                                                                                                                                                                                                                                                                                                                                                              
  1.185000E+03  1.250000E+02 -5.225000E+03  3.390489E-06 -2.212191E-07 -9.220685E-09 -3.383252E-06  7.077730E-09 -4.666720E-10 -1.945373E-11 -7.062301E-09  0.000000E+00  0.000000E+00  0.000000E+00  0.000000E+00  0.000000E+00  0.000000E+00  0.000000E+00  0.000000E+00  2.798680E+00 -1.973761E-01 -8.218334E-03 -2.791699E+00                                                                                                                                                                                                                                                                                                                                                                                                                                                                                              
  1.435000E+03  1.250000E+02 -5.225000E+03  3.541956E-06 -1.024167E-07 -9.680245E-09 -3.540462E-06  7.392887E-09 -2.160288E-10 -2.042059E-11 -7.389702E-09  0.000000E+00  0.000000E+00  0.000000E+00  0.000000E+00  0.000000E+00  0.000000E+00  0.000000E+00  0.000000E+00  2.950760E+00 -9.148969E-02 -8.647086E-03 -2.949328E+00                                                                                                                                                                                                                                                                                                                                                                                                                                                                                              
  1.250000E+02  1.250000E+02 -4.975000E+03  6.798221E-06  1.443279E-07 -4.330314E-09 -6.796687E-06  1.377652E-08  2.975862E-10 -8.934111E-12 -1.377330E-08  0.000000E+00  0.000000E+00  0.000000E+00  0.000000E+00  0.000000E+00  0.000000E+00  0.000000E+00  0.000000E+00  4.796535E+00  1.162113E-01 -3.485415E-03 -4.795126E+00                                                                                                                                                                                                                                                                                                                                                                                                                                                                                              
  3.750000E+02  1.250000E+02 -4.975000E+03  6.368635E-06  2.380367E-07 -4.771088E-09 -6.364184E-06  1.290420E-08  4.907458E-10 -9.837373E-12 -1.289486E-08  0.000000E+00  0.000000E+00  0.000000E+00  0.000000E+00  0.000000E+00  0.000000E+00  0.000000E+00  0.000000E+00  4.387794E+00  1.907918E-01 -3.796327E-03 -4.383642E+00                                                                                                                                                                                                                                                                                                                                                                                                                                                                                              
  6.250000E+02  1.250000E+02 -4.975000E+03  6.094682E-06  2.748971E-08 -5.458872E-09 -6.094618E-06  1.235067E-08  5.666780E-11 -1.125323E-11 -1.235053E-08  0.000000E+00  0.000000E+00  0.000000E+00  0.000000E+00  0.000000E+00  0.000000E+00  0.000000E+00  0.000000E+00  4.145819E+00  2.217808E-02 -4.318731E-03 -4.145757E+00                                                                                                                                                                                                                                                                                                                                                                                                                                                                                              
  7.600000E+02  1.250000E+02 -4.975000E+03  6.125210E-06 -1.447212E-07 -5.869181E-09 -6.123497E-06  1.241083E-08 -2.983010E-10 -1.209750E-11 -1.240724E-08  0.000000E+00  0.000000E+00  0.000000E+00  0.000000E+00  0.000000E+00  0.000000E+00  0.000000E+00  0.000000E+00  4.171398E+00 -1.145571E-01 -4.644992E-03 -4.169822E+00                                                                                                                                                                                                                                                                                                                                                                                                                                                                                              
  7.800000E+02  1.250000E+02 -4.975000E+03  6.135403E-06 -1.689645E-07 -5.931707E-09 -6.133073E-06  1.243145E-08 -3.482777E-10 -1.222643E-11 -1.242656E-08  0.000000E+00  0.000000E+00  0.000000E+00  0.000000E+00  0.000000E+00  0.000000E+00  0.000000E+00  0.000000E+00  4.180925E+00 -1.338772E-01 -4.695955E-03 -4.178779E+00                                                                                                                                                                                                                                                                                                                                                                                                                                                                                              
  8.000000E+02  1.250000E+02 -4.975000E+03  6.156342E-06 -1.920162E-07 -5.998174E-09 -6.153344E-06  1.247445E-08 -3.957953E-10 -1.236429E-11 -1.246816E-08  0.000000E+00  0.000000E+00  0.000000E+00  0.000000E+00  0.000000E+00  0.000000E+00  0.000000E+00  0.000000E+00  4.202186E+00 -1.524714E-01 -4.753105E-03 -4.199416E+00                                                                                                                                                                                                                                                                                                                                                                                                                                                                                              
  9.350000E+02  1.250000E+02 -4.975000E+03  6.267413E-06 -2.913867E-07 -6.427277E-09 -6.260633E-06  1.269919E-08 -6.005220E-10 -1.325017E-11 -1.268498E-08  0.000000E+00  0.000000E+00  0.000000E+00  0.000000E+00  0.000000E+00  0.000000E+00  0.000000E+00  0.000000E+00  4.305571E+00 -2.328367E-01 -5.109767E-03 -4.299268E+00                                                                                                                                                                                                                                                                                                                                                                                                                                                                                              
  1.185000E+03  1.250000E+02 -4.975000E+03  6.563443E-06 -3.751367E-07 -7.206757E-09 -6.552710E-06  1.329642E-08 -7.731628E-10 -1.485670E-11 -1.327391E-08  0.000000E+00  0.000000E+00  0.000000E+00  0.000000E+00  0.000000E+00  0.000000E+00  0.000000E+00  0.000000E+00  4.583254E+00 -3.024676E-01 -5.773648E-03 -4.573259E+00                                                                                                                                                                                                                                                                                                                                                                                                                                                                                              
  1.435000E+03  1.250000E+02 -4.975000E+03  6.977930E-06 -1.853037E-07 -7.813569E-09 -6.975464E-06  1.413930E-08 -3.819677E-10 -1.611708E-11 -1.413413E-08  0.000000E+00  0.000000E+00  0.000000E+00  0.000000E+00  0.000000E+00  0.000000E+00  0.000000E+00  0.000000E+00  4.999079E+00 -1.503798E-01 -6.340097E-03 -4.996813E+00                                                                                                                                                                                                                                                                                                                                                                                                                                                                                              
  1.250000E+02  1.250000E+02 -4.725000E+03  1.053087E-05  2.426560E-07 -9.432091E-10 -1.052808E-05  2.041967E-08  4.781901E-10 -1.861327E-12 -2.041407E-08  0.000000E+00  0.000000E+00  0.000000E+00  0.000000E+00  0.000000E+00  0.000000E+00  0.000000E+00  0.000000E+00  5.663791E+00  1.571799E-01 -6.103046E-04 -5.661610E+00                                                                                                                                                                                                                                                                                                                                                                                                                                                                                              
  3.750000E+02  1.250000E+02 -4.725000E+03  9.583192E-06  4.085010E-07 -1.331430E-09 -9.574481E-06  1.855091E-08  8.047925E-10 -2.623868E-12 -1.853344E-08  0.000000E+00  0.000000E+00  0.000000E+00  0.000000E+00  0.000000E+00  0.000000E+00  0.000000E+00  0.000000E+00  4.858384E+00  2.607952E-01 -8.314204E-04 -4.851379E+00                                                                                                                                                                                                                                                                                                                                                                                                                                                                                              
  6.250000E+02  1.250000E+02 -4.725000E+03  9.032136E-06  9.830134E-08 -1.861608E-09 -9.031601E-06  1.747267E-08  1.935708E-10 -3.667110E-12 -1.747159E-08  0.000000E+00  0.000000E+00  0.000000E+00  0.000000E+00  0.000000E+00  0.000000E+00  0.000000E+00  0.000000E+00  4.428026E+00  6.217602E-02 -1.140363E-03 -4.427589E+00                                                                                                                                                                                                                                                                                                                                                                                                                                                                                              
  7.600000E+02  1.250000E+02 -4.725000E+03  9.022059E-06 -1.575305E-07 -2.115623E-09 -9.020683E-06  1.745502E-08 -3.102731E-10 -4.167026E-12 -1.745226E-08  0.000000E+00  0.000000E+00  0.000000E+00  0.000000E+00  0.000000E+00  0.000000E+00  0.000000E+00  0.000000E+00  4.433317E+00 -9.671700E-02 -1.298093E-03 -4.432262E+00                                                                                                                                                                                                                                                                                                                                                                                                                                                                                              
  7.800000E+02  1.250000E+02 -4.725000E+03  9.032988E-06 -2.027053E-07 -2.155741E-09 -9.030713E-06  1.747694E-08 -3.992695E-10 -4.246123E-12 -1.747238E-08  0.000000E+00  0.000000E+00  0.000000E+00  0.000000E+00  0.000000E+00  0.000000E+00  0.000000E+00  0.000000E+00  4.443638E+00 -1.247361E-01 -1.323862E-03 -4.441887E+00                                                                                                                                                                                                                                                                                                                                                                                                                                                                                              
  8.000000E+02  1.250000E+02 -4.725000E+03  9.055774E-06 -2.489107E-07 -2.201105E-09 -9.052352E-06  1.752345E-08 -4.902910E-10 -4.335993E-12 -1.751658E-08  0.000000E+00  0.000000E+00  0.000000E+00  0.000000E+00  0.000000E+00  0.000000E+00  0.000000E+00  0.000000E+00  4.465305E+00 -1.541163E-01 -1.354983E-03 -4.462645E+00                                                                                                                                                                                                                                                                                                                                                                                                                                                                                              
  9.350000E+02  1.250000E+02 -4.725000E+03  9.428788E-06 -3.568121E-07 -2.496154E-09 -9.422034E-06  1.824685E-08 -7.027991E-10 -4.918431E-12 -1.823331E-08  0.000000E+00  0.000000E+00  0.000000E+00  0.000000E+00  0.000000E+00  0.000000E+00  0.000000E+00  0.000000E+00  4.737685E+00 -2.250329E-01 -1.551182E-03 -4.732337E+00                                                                                                                                                                                                                                                                                                                                                                                                                                                                                              
  1.185000E+03  1.250000E+02 -4.725000E+03  9.878108E-06 -4.710725E-07 -3.087315E-09 -9.866869E-06  1.913657E-08 -9.282950E-10 -6.086086E-12 -1.911404E-08  0.000000E+00  0.000000E+00  0.000000E+00  0.000000E+00  0.000000E+00  0.000000E+00  0.000000E+00  0.000000E+00  5.146634E+00 -3.059430E-01 -1.964254E-03 -5.137532E+00                                                                                                                                                                                                                                                                                                                                                                                                                                                                                              