Title="TOUGHREACT V3.30-OMP flowvector.tec: Liq & Gas Fluxes (kg/s/m^2), Pore Velocities (m/s), & Heat Fluxes (J/s/m2)"                                                                                                                                                                                                                                                                                                                                                                                                                                                                                                                                                                                                                                                                                                         
Variables= "X(m)"     "Y(m)"      "Z(m)"     "FluxLiq"   "FluxLiq_X"   "FluxLiq_Y"   "FluxLiq_Z"   "PorVelLiq"  "PorVelLiqX"  "PorVelLiqY"  "PorVelLiqZ"     "FluxGas"   "FluxGas_X"   "FluxGas_Y"   "FluxGas_Z"   "PorVelGas"  "PorVelGasX"  "PorVelGasY"  "PorVelGasZ"    "HeatFlux"  "HeatFlux_X"  "HeatFlux_Y"  "HeatFlux_Z"                                                                                                                                                                                                                                                                                                                                                                                                                                                                                                
Zone T= "7.00000000E+10 sec" I=     9 J=    10 K=    23 F=Point
  1.250000E+02  1.250000E+02 -5.425000E+03  4.001913E-09 -1.960042E-10 -2.757662E-10  3.987586E-09  2.225770E-11 -1.106090E-12 -1.556201E-12  2.217566E-11  0.000000E+00  0.000000E+00  0.000000E+00  0.000000E+00  0.000000E+00  0.000000E+00  0.000000E+00  0.000000E+00  4.611996E-03 -2.258864E-04 -3.178073E-04  4.595485E-03                                                                                                                                                                                                                                                                                                                                                                                                                                                                                              
  3.750000E+02  1.250000E+02 -5.425000E+03  3.782011E-09 -1.891593E-10 -3.037014E-10  3.765049E-09  2.103525E-11 -1.067463E-12 -1.713849E-12  2.093812E-11  0.000000E+00  0.000000E+00  0.000000E+00  0.000000E+00  0.000000E+00  0.000000E+00  0.000000E+00  0.000000E+00  4.358606E-03 -2.179980E-04 -3.500054E-04  4.339057E-03                                                                                                                                                                                                                                                                                                                                                                                                                                                                                              
  6.250000E+02  1.250000E+02 -5.425000E+03  3.607097E-09  6.147341E-10 -3.256619E-10  3.539377E-09  2.007086E-11  3.469079E-12 -1.837784E-12  1.968318E-11  0.000000E+00  0.000000E+00  0.000000E+00  0.000000E+00  0.000000E+00  0.000000E+00  0.000000E+00  0.000000E+00  4.157063E-03  7.084611E-04 -3.753190E-04  4.079018E-03                                                                                                                                                                                                                                                                                                                                                                                                                                                                                              
  7.600000E+02  1.250000E+02 -5.425000E+03  3.855680E-09  1.252170E-09 -3.329571E-10  3.631457E-09  2.147816E-11  7.066269E-12 -1.878952E-12  2.019527E-11  0.000000E+00  0.000000E+00  0.000000E+00  0.000000E+00  0.000000E+00  0.000000E+00  0.000000E+00  0.000000E+00  4.443537E-03  1.443083E-03 -3.837250E-04  4.185127E-03                                                                                                                                                                                                                                                                                                                                                                                                                                                                                              
  7.800000E+02  1.250000E+02 -5.425000E+03  3.894235E-09  1.322893E-09 -3.339181E-10  3.647399E-09  2.169609E-11  7.465375E-12 -1.884375E-12  2.028393E-11  0.000000E+00  0.000000E+00  0.000000E+00  0.000000E+00  0.000000E+00  0.000000E+00  0.000000E+00  0.000000E+00  4.487967E-03  1.524587E-03 -3.848322E-04  4.203497E-03                                                                                                                                                                                                                                                                                                                                                                                                                                                                                              
  8.000000E+02  1.250000E+02 -5.425000E+03  3.934786E-09  1.389121E-09 -3.347491E-10  3.666174E-09  2.192498E-11  7.839112E-12 -1.889064E-12  2.038834E-11  0.000000E+00  0.000000E+00  0.000000E+00  0.000000E+00  0.000000E+00  0.000000E+00  0.000000E+00  0.000000E+00  4.534699E-03  1.600912E-03 -3.857896E-04  4.225132E-03                                                                                                                                                                                                                                                                                                                                                                                                                                                                                              
  9.350000E+02  1.250000E+02 -5.425000E+03  4.137345E-09  1.602460E-09 -3.393803E-10  3.799285E-09  2.306215E-11  9.043032E-12 -1.915198E-12  2.112861E-11  0.000000E+00  0.000000E+00  0.000000E+00  0.000000E+00  0.000000E+00  0.000000E+00  0.000000E+00  0.000000E+00  4.768123E-03  1.846774E-03 -3.911246E-04  4.378521E-03                                                                                                                                                                                                                                                                                                                                                                                                                                                                                              
  1.185000E+03  1.250000E+02 -5.425000E+03  4.348423E-09  1.492026E-09 -3.203552E-10  4.071856E-09  2.422678E-11  8.419829E-12 -1.807835E-12  2.264454E-11  0.000000E+00  0.000000E+00  0.000000E+00  0.000000E+00  0.000000E+00  0.000000E+00  0.000000E+00  0.000000E+00  5.011354E-03  1.719496E-03 -3.691948E-04  4.692622E-03                                                                                                                                                                                                                                                                                                                                                                                                                                                                                              
  1.435000E+03  1.250000E+02 -5.425000E+03  4.290807E-09  6.000741E-10 -2.903241E-10  4.238708E-09  2.387084E-11  3.386352E-12 -1.638364E-12  2.357256E-11  0.000000E+00  0.000000E+00  0.000000E+00  0.000000E+00  0.000000E+00  0.000000E+00  0.000000E+00  0.000000E+00  4.944946E-03  6.915571E-04 -3.345841E-04  4.884904E-03                                                                                                                                                                                                                                                                                                                                                                                                                                                                                              
  1.250000E+02  1.250000E+02 -5.225000E+03  8.746137E-09 -3.580710E-10 -3.374387E-10  8.732287E-09  4.809135E-11 -1.961907E-12 -1.848860E-12  4.801573E-11  0.000000E+00  0.000000E+00  0.000000E+00  0.000000E+00  0.000000E+00  0.000000E+00  0.000000E+00  0.000000E+00  9.592638E-03 -3.760729E-04 -3.544022E-04  9.578709E-03                                                                                                                                                                                                                                                                                                                                                                                                                                                                                              
  3.750000E+02  1.250000E+02 -5.225000E+03  7.834171E-09 -5.284856E-10 -4.038159E-10  7.805887E-09  4.309898E-11 -2.895627E-12 -2.212549E-12  4.294464E-11  0.000000E+00  0.000000E+00  0.000000E+00  0.000000E+00  0.000000E+00  0.000000E+00  0.000000E+00  0.000000E+00  8.611426E-03 -5.550569E-04 -4.241212E-04  8.583047E-03                                                                                                                                                                                                                                                                                                                                                                                                                                                                                              
  6.250000E+02  1.250000E+02 -5.225000E+03  6.740416E-09  5.381580E-10 -4.466491E-10  6.704036E-09  3.711592E-11  2.948632E-12 -2.447247E-12  3.691758E-11  0.000000E+00  0.000000E+00  0.000000E+00  0.000000E+00  0.000000E+00  0.000000E+00  0.000000E+00  0.000000E+00  7.439166E-03  5.652195E-04 -4.691195E-04  7.402813E-03                                                                                                                                                                                                                                                                                                                                                                                                                                                                                              
  7.600000E+02  1.250000E+02 -5.225000E+03  7.237452E-09  1.473660E-09 -4.562492E-10  7.071130E-09  3.983447E-11  8.074362E-12 -2.499848E-12  3.892737E-11  0.000000E+00  0.000000E+00  0.000000E+00  0.000000E+00  0.000000E+00  0.000000E+00  0.000000E+00  0.000000E+00  7.964318E-03  1.547764E-03 -4.791990E-04  7.797767E-03                                                                                                                                                                                                                                                                                                                                                                                                                                                                                              
  7.800000E+02  1.250000E+02 -5.225000E+03  7.331084E-09  1.583563E-09 -4.573835E-10  7.143383E-09  4.034648E-11  8.676538E-12 -2.506063E-12  3.932271E-11  0.000000E+00  0.000000E+00  0.000000E+00  0.000000E+00  0.000000E+00  0.000000E+00  0.000000E+00  0.000000E+00  8.063313E-03  1.663194E-03 -4.803897E-04  7.875280E-03                                                                                                                                                                                                                                                                                                                                                                                                                                                                                              
  8.000000E+02  1.250000E+02 -5.225000E+03  7.492695E-09  1.681925E-09 -4.582278E-10  7.287087E-09  4.122947E-11  9.215484E-12 -2.510689E-12  4.010786E-11  0.000000E+00  0.000000E+00  0.000000E+00  0.000000E+00  0.000000E+00  0.000000E+00  0.000000E+00  0.000000E+00  8.234262E-03  1.766504E-03 -4.812760E-04  8.028132E-03                                                                                                                                                                                                                                                                                                                                                                                                                                                                                              
  9.350000E+02  1.250000E+02 -5.225000E+03  8.171824E-09  1.913931E-09 -4.598261E-10  7.931212E-09  4.494466E-11  1.048670E-11 -2.519448E-12  4.363146E-11  0.000000E+00  0.000000E+00  0.000000E+00  0.000000E+00  0.000000E+00  0.000000E+00  0.000000E+00  0.000000E+00  8.960010E-03  2.010180E-03 -4.829510E-04  8.718240E-03                                                                                                                                                                                                                                                                                                                                                                                                                                                                                              
  1.185000E+03  1.250000E+02 -5.225000E+03  9.150038E-09  1.739881E-09 -4.069022E-10  8.973876E-09  5.030385E-11  9.533107E-12 -2.229484E-12  4.934194E-11  0.000000E+00  0.000000E+00  0.000000E+00  0.000000E+00  0.000000E+00  0.000000E+00  0.000000E+00  0.000000E+00  1.001859E-02  1.827390E-03 -4.273657E-04  9.841247E-03                                                                                                                                                                                                                                                                                                                                                                                                                                                                                              
  1.435000E+03  1.250000E+02 -5.225000E+03  9.596399E-09  6.893996E-10 -3.353100E-10  9.565728E-09  5.275260E-11  3.777360E-12 -1.837234E-12  5.258510E-11  0.000000E+00  0.000000E+00  0.000000E+00  0.000000E+00  0.000000E+00  0.000000E+00  0.000000E+00  0.000000E+00  1.051092E-02  7.240812E-04 -3.521795E-04  1.048004E-02                                                                                                                                                                                                                                                                                                                                                                                                                                                                                              
  1.250000E+02  1.250000E+02 -4.975000E+03  1.120122E-08 -1.000947E-09 -6.035690E-10  1.114007E-08  6.054386E-11 -5.413420E-12 -3.264305E-12  6.021294E-11  0.000000E+00  0.000000E+00  0.000000E+00  0.000000E+00  0.000000E+00  0.000000E+00  0.000000E+00  0.000000E+00  1.144576E-02 -1.001999E-03 -6.042293E-04  1.138579E-02                                                                                                                                                                                                                                                                                                                                                                                                                                                                                              
  3.750000E+02  1.250000E+02 -4.975000E+03  9.214646E-09 -1.947155E-09 -8.920705E-10  8.962282E-09  4.980517E-11 -1.053061E-11 -4.824461E-12  4.843951E-11  0.000000E+00  0.000000E+00  0.000000E+00  0.000000E+00  0.000000E+00  0.000000E+00  0.000000E+00  0.000000E+00  9.417859E-03 -1.949031E-03 -8.929225E-04  9.170607E-03                                                                                                                                                                                                                                                                                                                                                                                                                                                                                              
  6.250000E+02  1.250000E+02 -4.975000E+03  5.363380E-09  2.395440E-10 -1.022496E-09  5.259560E-09  2.903396E-11  1.295311E-12 -5.529511E-12  2.847311E-11  0.000000E+00  0.000000E+00  0.000000E+00  0.000000E+00  0.000000E+00  0.000000E+00  0.000000E+00  0.000000E+00  5.521464E-03  2.397526E-04 -1.023253E-03  5.420520E-03                                                                                                                                                                                                                                                                                                                                                                                                                                                                                              
  7.600000E+02  1.250000E+02 -4.975000E+03  5.954829E-09  2.588818E-09 -1.054271E-09  5.257996E-09  3.224956E-11  1.400024E-11 -5.701334E-12  2.848723E-11  0.000000E+00  0.000000E+00  0.000000E+00  0.000000E+00  0.000000E+00  0.000000E+00  0.000000E+00  0.000000E+00  6.110577E-03  2.591064E-03 -1.055032E-03  5.432536E-03                                                                                                                                                                                                                                                                                                                                                                                                                                                                                              
  7.800000E+02  1.250000E+02 -4.975000E+03  6.210906E-09  3.028165E-09 -1.060421E-09  5.317995E-09  3.363500E-11  1.637639E-11 -5.734612E-12  2.881391E-11  0.000000E+00  0.000000E+00  0.000000E+00  0.000000E+00  0.000000E+00  0.000000E+00  0.000000E+00  0.000000E+00  6.364826E-03  3.030790E-03 -1.061203E-03  5.495377E-03                                                                                                                                                                                                                                                                                                                                                                                                                                                                                              
  8.000000E+02  1.250000E+02 -4.975000E+03  8.345535E-09  3.311508E-09 -1.068779E-09  7.585484E-09  4.511780E-11  1.790917E-11 -5.779951E-12  4.100573E-11  0.000000E+00  0.000000E+00  0.000000E+00  0.000000E+00  0.000000E+00  0.000000E+00  0.000000E+00  0.000000E+00  8.516325E-03  3.314615E-03 -1.069605E-03  7.771555E-03                                                                                                                                                                                                                                                                                                                                                                                                                                                                                              
  9.350000E+02  1.250000E+02 -4.975000E+03  9.999390E-09  3.401691E-09 -1.064103E-09  9.342590E-09  5.405039E-11  1.839746E-11 -5.754912E-12  5.049613E-11  0.000000E+00  0.000000E+00  0.000000E+00  0.000000E+00  0.000000E+00  0.000000E+00  0.000000E+00  0.000000E+00  1.020046E-02  3.405267E-03 -1.065149E-03  9.556096E-03                                                                                                                                                                                                                                                                                                                                                                                                                                                                                              
  1.185000E+03  1.250000E+02 -4.975000E+03  1.172249E-08  2.753701E-09 -8.363257E-10  1.136374E-08  6.337808E-11  1.489332E-11 -4.523219E-12  6.143704E-11  0.000000E+00  0.000000E+00  0.000000E+00  0.000000E+00  0.000000E+00  0.000000E+00  0.000000E+00  0.000000E+00  1.197007E-02  2.756836E-03 -8.372644E-04  1.161815E-02                                                                                                                                                                                                                                                                                                                                                                                                                                                                                              
  1.435000E+03  1.250000E+02 -4.975000E+03  1.231785E-08  1.038419E-09 -5.223026E-10  1.226289E-08  6.661072E-11  5.616373E-12 -2.824929E-12  6.631338E-11  0.000000E+00  0.000000E+00  0.000000E+00  0.000000E+00  0.000000E+00  0.000000E+00  0.000000E+00  0.000000E+00  1.259385E-02  1.039673E-03 -5.229464E-04  1.253996E-02                                                                                                                                                                                                                                                                                                                                                                                                                                                                                              
  1.250000E+02  1.250000E+02 -4.725000E+03  1.364309E-08 -4.937837E-10 -2.929907E-10  1.363100E-08  7.088443E-11 -2.633619E-12 -1.563217E-12  7.081824E-11  0.000000E+00  0.000000E+00  0.000000E+00  0.000000E+00  0.000000E+00  0.000000E+00  0.000000E+00  0.000000E+00  1.327876E-02 -4.660352E-04 -2.773210E-04  1.326768E-02                                                                                                                                                                                                                                                                                                                                                                                                                                                                                              
  3.750000E+02  1.250000E+02 -4.725000E+03  1.027064E-08 -9.151891E-10 -4.024414E-10  1.022187E-08  5.338023E-11 -4.877327E-12 -2.143409E-12  5.311371E-11  0.000000E+00  0.000000E+00  0.000000E+00  0.000000E+00  0.000000E+00  0.000000E+00  0.000000E+00  0.000000E+00  9.973514E-03 -8.602049E-04 -3.774378E-04  9.929178E-03                                                                                                                                                                                                                                                                                                                                                                                                                                                                                              
  6.250000E+02  1.250000E+02 -4.725000E+03  3.563789E-09  1.312451E-10 -2.957195E-10  3.549072E-09  1.863045E-11  6.955642E-13 -1.571307E-12  1.855104E-11  0.000000E+00  0.000000E+00  0.000000E+00  0.000000E+00  0.000000E+00  0.000000E+00  0.000000E+00  0.000000E+00  3.469960E-03  1.227627E-04 -2.744273E-04  3.456912E-03                                                                                                                                                                                                                                                                                                                                                                                                                                                                                              
  7.600000E+02  1.250000E+02 -4.725000E+03  3.048560E-09  1.206629E-09 -3.691208E-10  2.775161E-09  1.603813E-11  6.417594E-12 -1.961581E-12  1.456669E-11  0.000000E+00  0.000000E+00  0.000000E+00  0.000000E+00  0.000000E+00  0.000000E+00  0.000000E+00  0.000000E+00  2.960240E-03  1.128740E-03 -3.428713E-04  2.715033E-03                                                                                                                                                                                                                                                                                                                                                                                                                                                                                              
  7.800000E+02  1.250000E+02 -4.725000E+03  3.119018E-09  1.412778E-09 -3.843077E-10  2.754023E-09  1.642643E-11  7.517218E-12 -2.042454E-12  1.446193E-11  0.000000E+00  0.000000E+00  0.000000E+00  0.000000E+00  0.000000E+00  0.000000E+00  0.000000E+00  0.000000E+00  3.023449E-03  1.321795E-03 -3.571663E-04  2.695651E-03                                                                                                                                                                                                                                                                                                                                                                                                                                                                                              
  8.000000E+02  1.250000E+02 -4.725000E+03  8.210898E-09  1.543157E-09 -4.036956E-10  8.054473E-09  4.272085E-11  8.219163E-12 -2.147346E-12  4.186771E-11  0.000000E+00  0.000000E+00  0.000000E+00  0.000000E+00  0.000000E+00  0.000000E+00  0.000000E+00  0.000000E+00  7.960028E-03  1.448260E-03 -3.755923E-04  7.818154E-03                                                                                                                                                                                                                                                                                                                                                                                                                                                                                              
  9.350000E+02  1.250000E+02 -4.725000E+03  1.105606E-08  1.632732E-09 -5.161239E-10  1.092265E-08  5.748315E-11  8.707390E-12 -2.749703E-12  5.675326E-11  0.000000E+00  0.000000E+00  0.000000E+00  0.000000E+00  0.000000E+00  0.000000E+00  0.000000E+00  0.000000E+00  1.073965E-02  1.540483E-03 -4.843025E-04  1.061755E-02                                                                                                                                                                                                                                                                                                                                                                                                                                                                                              
  1.185000E+03  1.250000E+02 -4.725000E+03  1.380997E-08  1.417647E-09 -4.742797E-10  1.372883E-08  7.180100E-11  7.567858E-12 -2.531070E-12  7.135618E-11  0.000000E+00  0.000000E+00  0.000000E+00  0.000000E+00  0.000000E+00  0.000000E+00  0.000000E+00  0.000000E+00  1.345427E-02  1.343506E-03 -4.487723E-04  1.337949E-02                                                                                                                                                                                                                                                                                                                                                                                                                                                                                              