Title="TOUGHREACT V3.30-OMP flowvector.tec: Liq & Gas Fluxes (kg/s/m^2), Pore Velocities (m/s), & Heat Fluxes (J/s/m2)"                                                                                                                                                                                                                                                                                                                                                                                                                                                                                                                                                                                                                                                                                                         
Variables= "X(m)"     "Y(m)"      "Z(m)"     "FluxLiq"   "FluxLiq_X"   "FluxLiq_Y"   "FluxLiq_Z"   "PorVelLiq"  "PorVelLiqX"  "PorVelLiqY"  "PorVelLiqZ"     "FluxGas"   "FluxGas_X"   "FluxGas_Y"   "FluxGas_Z"   "PorVelGas"  "PorVelGasX"  "PorVelGasY"  "PorVelGasZ"    "HeatFlux"  "HeatFlux_X"  "HeatFlux_Y"  "HeatFlux_Z"                                                                                                                                                                                                                                                                                                                                                                                                                                                                                                
Zone T= "3.00000000E+10 sec" I=     9 J=    10 K=    23 F=Point
  1.250000E+02  1.250000E+02 -5.425000E+03  3.512462E-09 -4.283722E-11 -3.089031E-10  3.498590E-09  1.943500E-11 -2.391630E-13 -1.724624E-12  1.935685E-11  0.000000E+00  0.000000E+00  0.000000E+00  0.000000E+00  0.000000E+00  0.000000E+00  0.000000E+00  0.000000E+00  3.921023E-03 -4.782034E-05 -3.448352E-04  3.905538E-03                                                                                                                                                                                                                                                                                                                                                                                                                                                                                              
  3.750000E+02  1.250000E+02 -5.425000E+03  3.319608E-09  2.544890E-10 -3.478135E-10  3.291513E-09  1.836947E-11  1.420834E-12 -1.941869E-12  1.821120E-11  0.000000E+00  0.000000E+00  0.000000E+00  0.000000E+00  0.000000E+00  0.000000E+00  0.000000E+00  0.000000E+00  3.705767E-03  2.840929E-04 -3.882765E-04  3.674404E-03                                                                                                                                                                                                                                                                                                                                                                                                                                                                                              
  6.250000E+02  1.250000E+02 -5.425000E+03  3.392482E-09  1.284240E-09 -4.033184E-10  3.114000E-09  1.879690E-11  7.170029E-12 -2.251767E-12  1.722915E-11  0.000000E+00  0.000000E+00  0.000000E+00  0.000000E+00  0.000000E+00  0.000000E+00  0.000000E+00  0.000000E+00  3.787153E-03  1.433642E-03 -4.502445E-04  3.476274E-03                                                                                                                                                                                                                                                                                                                                                                                                                                                                                              
  7.600000E+02  1.250000E+02 -5.425000E+03  3.843389E-09  2.015588E-09 -4.493651E-10  3.241468E-09  2.132071E-11  1.125322E-11 -2.508851E-12  1.793441E-11  0.000000E+00  0.000000E+00  0.000000E+00  0.000000E+00  0.000000E+00  0.000000E+00  0.000000E+00  0.000000E+00  4.290508E-03  2.250073E-03 -5.016465E-04  3.618561E-03                                                                                                                                                                                                                                                                                                                                                                                                                                                                                              
  7.800000E+02  1.250000E+02 -5.425000E+03  3.905251E-09  2.096782E-09 -4.562607E-10  3.262870E-09  2.166649E-11  1.170654E-11 -2.547350E-12  1.805283E-11  0.000000E+00  0.000000E+00  0.000000E+00  0.000000E+00  0.000000E+00  0.000000E+00  0.000000E+00  0.000000E+00  4.359564E-03  2.340709E-03 -5.093439E-04  3.642451E-03                                                                                                                                                                                                                                                                                                                                                                                                                                                                                              
  8.000000E+02  1.250000E+02 -5.425000E+03  3.967699E-09  2.172938E-09 -4.632096E-10  3.287311E-09  2.201528E-11  1.213173E-11 -2.586147E-12  1.818806E-11  0.000000E+00  0.000000E+00  0.000000E+00  0.000000E+00  0.000000E+00  0.000000E+00  0.000000E+00  0.000000E+00  4.429274E-03  2.425723E-03 -5.171009E-04  3.669734E-03                                                                                                                                                                                                                                                                                                                                                                                                                                                                                              
  9.350000E+02  1.250000E+02 -5.425000E+03  4.256624E-09  2.425485E-09 -5.103074E-10  3.460558E-09  2.362389E-11  1.354172E-11 -2.849098E-12  1.914661E-11  0.000000E+00  0.000000E+00  0.000000E+00  0.000000E+00  0.000000E+00  0.000000E+00  0.000000E+00  0.000000E+00  4.751795E-03  2.707643E-03 -5.696746E-04  3.863120E-03                                                                                                                                                                                                                                                                                                                                                                                                                                                                                              
  1.185000E+03  1.250000E+02 -5.425000E+03  4.512332E-09  2.240727E-09 -5.839635E-10  3.872889E-09  2.502591E-11  1.251022E-11 -3.260331E-12  2.142804E-11  0.000000E+00  0.000000E+00  0.000000E+00  0.000000E+00  0.000000E+00  0.000000E+00  0.000000E+00  0.000000E+00  5.037219E-03  2.501382E-03 -6.518922E-04  4.323390E-03                                                                                                                                                                                                                                                                                                                                                                                                                                                                                              
  1.435000E+03  1.250000E+02 -5.425000E+03  4.347589E-09  9.200729E-10 -6.180971E-10  4.203921E-09  2.406885E-11  5.136872E-12 -3.450908E-12  2.325969E-11  0.000000E+00  0.000000E+00  0.000000E+00  0.000000E+00  0.000000E+00  0.000000E+00  0.000000E+00  0.000000E+00  4.853302E-03  1.027097E-03 -6.899937E-04  4.692922E-03                                                                                                                                                                                                                                                                                                                                                                                                                                                                                              
  1.250000E+02  1.250000E+02 -5.225000E+03  7.122251E-09 -2.077789E-10 -3.785289E-10  7.109149E-09  3.909448E-11 -1.138580E-12 -2.074248E-12  3.902280E-11  0.000000E+00  0.000000E+00  0.000000E+00  0.000000E+00  0.000000E+00  0.000000E+00  0.000000E+00  0.000000E+00  7.710214E-03 -2.181845E-04 -3.974826E-04  7.696870E-03                                                                                                                                                                                                                                                                                                                                                                                                                                                                                              
  3.750000E+02  1.250000E+02 -5.225000E+03  6.228221E-09 -6.677432E-11 -4.536770E-10  6.211316E-09  3.420706E-11 -3.659042E-13 -2.486052E-12  3.411464E-11  0.000000E+00  0.000000E+00  0.000000E+00  0.000000E+00  0.000000E+00  0.000000E+00  0.000000E+00  0.000000E+00  6.757611E-03 -7.011841E-05 -4.764042E-04  6.740432E-03                                                                                                                                                                                                                                                                                                                                                                                                                                                                                              
  6.250000E+02  1.250000E+02 -5.225000E+03  5.459481E-09  1.281582E-09 -5.315833E-10  5.280237E-09  3.000705E-11  7.022825E-12 -2.912985E-12  2.902787E-11  0.000000E+00  0.000000E+00  0.000000E+00  0.000000E+00  0.000000E+00  0.000000E+00  0.000000E+00  0.000000E+00  5.932726E-03  1.345788E-03 -5.582323E-04  5.751041E-03                                                                                                                                                                                                                                                                                                                                                                                                                                                                                              
  7.600000E+02  1.250000E+02 -5.225000E+03  6.271421E-09  2.346331E-09 -5.975287E-10  5.785189E-09  3.444685E-11  1.285745E-11 -3.274352E-12  3.178915E-11  0.000000E+00  0.000000E+00  0.000000E+00  0.000000E+00  0.000000E+00  0.000000E+00  0.000000E+00  0.000000E+00  6.784167E-03  2.463879E-03 -6.274766E-04  6.289714E-03                                                                                                                                                                                                                                                                                                                                                                                                                                                                                              
  7.800000E+02  1.250000E+02 -5.225000E+03  6.406811E-09  2.473395E-09 -6.074039E-10  5.878827E-09  3.518720E-11  1.355375E-11 -3.328466E-12  3.230102E-11  0.000000E+00  0.000000E+00  0.000000E+00  0.000000E+00  0.000000E+00  0.000000E+00  0.000000E+00  0.000000E+00  6.926615E-03  2.597303E-03 -6.378455E-04  6.389457E-03                                                                                                                                                                                                                                                                                                                                                                                                                                                                                              
  8.000000E+02  1.250000E+02 -5.225000E+03  6.604825E-09  2.588581E-09 -6.173592E-10  6.044984E-09  3.626922E-11  1.418495E-11 -3.383020E-12  3.320842E-11  0.000000E+00  0.000000E+00  0.000000E+00  0.000000E+00  0.000000E+00  0.000000E+00  0.000000E+00  0.000000E+00  7.135528E-03  2.718259E-03 -6.482986E-04  6.565556E-03                                                                                                                                                                                                                                                                                                                                                                                                                                                                                              
  9.350000E+02  1.250000E+02 -5.225000E+03  7.474369E-09  2.916218E-09 -6.827057E-10  6.848050E-09  4.102380E-11  1.598036E-11 -3.741105E-12  3.759766E-11  0.000000E+00  0.000000E+00  0.000000E+00  0.000000E+00  0.000000E+00  0.000000E+00  0.000000E+00  0.000000E+00  8.059310E-03  3.062303E-03 -7.169105E-04  7.420297E-03                                                                                                                                                                                                                                                                                                                                                                                                                                                                                              
  1.185000E+03  1.250000E+02 -5.225000E+03  8.955388E-09  2.735338E-09 -7.738243E-10  8.492237E-09  4.912449E-11  1.498923E-11 -4.240432E-12  4.658924E-11  0.000000E+00  0.000000E+00  0.000000E+00  0.000000E+00  0.000000E+00  0.000000E+00  0.000000E+00  0.000000E+00  9.647577E-03  2.872360E-03 -8.125834E-04  9.174149E-03                                                                                                                                                                                                                                                                                                                                                                                                                                                                                              
  1.435000E+03  1.250000E+02 -5.225000E+03  9.963562E-09  1.140058E-09 -8.012130E-10  9.865642E-09  5.463531E-11  6.247369E-12 -4.390547E-12  5.409908E-11  0.000000E+00  0.000000E+00  0.000000E+00  0.000000E+00  0.000000E+00  0.000000E+00  0.000000E+00  0.000000E+00  1.073851E-02  1.197170E-03 -8.413504E-04  1.063835E-02                                                                                                                                                                                                                                                                                                                                                                                                                                                                                              
  1.250000E+02  1.250000E+02 -4.975000E+03  8.337162E-09 -8.531728E-10 -6.644954E-10  8.266729E-09  4.507553E-11 -4.614841E-12 -3.594296E-12  4.469438E-11  0.000000E+00  0.000000E+00  0.000000E+00  0.000000E+00  0.000000E+00  0.000000E+00  0.000000E+00  0.000000E+00  8.521089E-03 -8.539600E-04 -6.651301E-04  8.452060E-03                                                                                                                                                                                                                                                                                                                                                                                                                                                                                              
  3.750000E+02  1.250000E+02 -4.975000E+03  6.222443E-09 -1.390330E-09 -9.437204E-10  5.991258E-09  3.365298E-11 -7.520254E-12 -5.104507E-12  3.240236E-11  0.000000E+00  0.000000E+00  0.000000E+00  0.000000E+00  0.000000E+00  0.000000E+00  0.000000E+00  0.000000E+00  6.366470E-03 -1.391527E-03 -9.445137E-04  6.140317E-03                                                                                                                                                                                                                                                                                                                                                                                                                                                                                              
  6.250000E+02  1.250000E+02 -4.975000E+03  3.096243E-09  1.261647E-09 -1.093291E-09  2.607620E-09  1.679986E-11  6.823852E-12 -5.913244E-12  1.416701E-11  0.000000E+00  0.000000E+00  0.000000E+00  0.000000E+00  0.000000E+00  0.000000E+00  0.000000E+00  0.000000E+00  3.189100E-03  1.262611E-03 -1.094018E-03  2.716487E-03                                                                                                                                                                                                                                                                                                                                                                                                                                                                                              
  7.600000E+02  1.250000E+02 -4.975000E+03  4.979732E-09  3.834148E-09 -1.266367E-09  2.914336E-09  2.698123E-11  2.073793E-11 -6.849335E-12  1.584336E-11  0.000000E+00  0.000000E+00  0.000000E+00  0.000000E+00  0.000000E+00  0.000000E+00  0.000000E+00  0.000000E+00  5.057936E-03  3.837047E-03 -1.267180E-03  3.042045E-03                                                                                                                                                                                                                                                                                                                                                                                                                                                                                              
  7.800000E+02  1.250000E+02 -4.975000E+03  5.424566E-09  4.312206E-09 -1.295255E-09  3.025410E-09  2.938584E-11  2.332387E-11 -7.005595E-12  1.644526E-11  0.000000E+00  0.000000E+00  0.000000E+00  0.000000E+00  0.000000E+00  0.000000E+00  0.000000E+00  0.000000E+00  5.501646E-03  4.315444E-03 -1.296099E-03  3.156767E-03                                                                                                                                                                                                                                                                                                                                                                                                                                                                                              
  8.000000E+02  1.250000E+02 -4.975000E+03  7.177828E-09  4.637347E-09 -1.328123E-09  5.315290E-09  3.882762E-11  2.508310E-11 -7.183530E-12  2.875447E-11  0.000000E+00  0.000000E+00  0.000000E+00  0.000000E+00  0.000000E+00  0.000000E+00  0.000000E+00  0.000000E+00  7.285009E-03  4.641153E-03 -1.329024E-03  5.455708E-03                                                                                                                                                                                                                                                                                                                                                                                                                                                                                              
  9.350000E+02  1.250000E+02 -4.975000E+03  9.131705E-09  5.067117E-09 -1.500667E-09  7.447171E-09  4.937904E-11  2.740848E-11 -8.117100E-12  4.026385E-11  0.000000E+00  0.000000E+00  0.000000E+00  0.000000E+00  0.000000E+00  0.000000E+00  0.000000E+00  0.000000E+00  9.276600E-03  5.071816E-03 -1.501971E-03  7.620766E-03                                                                                                                                                                                                                                                                                                                                                                                                                                                                                              
  1.185000E+03  1.250000E+02 -4.975000E+03  1.217777E-08  4.790439E-09 -1.689976E-09  1.106769E-08  6.584126E-11  2.591256E-11 -9.141392E-12  5.983348E-11  0.000000E+00  0.000000E+00  0.000000E+00  0.000000E+00  0.000000E+00  0.000000E+00  0.000000E+00  0.000000E+00  1.239672E-02  4.795235E-03 -1.691636E-03  1.130587E-02                                                                                                                                                                                                                                                                                                                                                                                                                                                                                              
  1.435000E+03  1.250000E+02 -4.975000E+03  1.481026E-08  2.083808E-09 -1.648688E-09  1.456995E-08  8.005468E-11  1.127197E-11 -8.918307E-12  7.875378E-11  0.000000E+00  0.000000E+00  0.000000E+00  0.000000E+00  0.000000E+00  0.000000E+00  0.000000E+00  0.000000E+00  1.509978E-02  2.085998E-03 -1.650455E-03  1.486364E-02                                                                                                                                                                                                                                                                                                                                                                                                                                                                                              
  1.250000E+02  1.250000E+02 -4.725000E+03  9.789654E-09 -4.747685E-10 -4.360284E-10  9.768408E-09  5.090491E-11 -2.532504E-12 -2.326649E-12  5.078861E-11  0.000000E+00  0.000000E+00  0.000000E+00  0.000000E+00  0.000000E+00  0.000000E+00  0.000000E+00  0.000000E+00  9.529683E-03 -4.480116E-04 -4.126300E-04  9.510199E-03                                                                                                                                                                                                                                                                                                                                                                                                                                                                                              
  3.750000E+02  1.250000E+02 -4.725000E+03  5.595519E-09 -3.598665E-10 -4.711173E-10  5.564025E-09  2.922024E-11 -1.920677E-12 -2.509504E-12  2.904885E-11  0.000000E+00  0.000000E+00  0.000000E+00  0.000000E+00  0.000000E+00  0.000000E+00  0.000000E+00  0.000000E+00  5.454918E-03 -3.395852E-04 -4.417925E-04  5.426383E-03                                                                                                                                                                                                                                                                                                                                                                                                                                                                                              
  6.250000E+02  1.250000E+02 -4.725000E+03  1.755950E-09  1.591373E-09 -3.461278E-10 -6.565735E-10  9.225774E-12  8.465670E-12 -1.839510E-12 -3.172307E-12  0.000000E+00  0.000000E+00  0.000000E+00  0.000000E+00  0.000000E+00  0.000000E+00  0.000000E+00  0.000000E+00  1.523643E-03  1.489378E-03 -3.213079E-04  1.704087E-06                                                                                                                                                                                                                                                                                                                                                                                                                                                                                              
  7.600000E+02  1.250000E+02 -4.725000E+03  3.499610E-09  3.136983E-09 -7.616603E-10 -1.351475E-09  1.843263E-11  1.668709E-11 -4.048431E-12 -6.701715E-12  0.000000E+00  0.000000E+00  0.000000E+00  0.000000E+00  0.000000E+00  0.000000E+00  0.000000E+00  0.000000E+00  3.035330E-03  2.934359E-03 -7.077199E-04 -3.192149E-04                                                                                                                                                                                                                                                                                                                                                                                                                                                                                              
  7.800000E+02  1.250000E+02 -4.725000E+03  3.877569E-09  3.520370E-09 -8.367139E-10 -1.393717E-09  2.045489E-11  1.873432E-11 -4.447716E-12 -6.902594E-12  0.000000E+00  0.000000E+00  0.000000E+00  0.000000E+00  0.000000E+00  0.000000E+00  0.000000E+00  0.000000E+00  3.398630E-03  3.293601E-03 -7.778497E-04 -3.127808E-04                                                                                                                                                                                                                                                                                                                                                                                                                                                                                              
  8.000000E+02  1.250000E+02 -4.725000E+03  6.000121E-09  3.800501E-09 -9.261001E-10  4.549724E-09  3.160862E-11  2.024521E-11 -4.927027E-12  2.376890E-11  0.000000E+00  0.000000E+00  0.000000E+00  0.000000E+00  0.000000E+00  0.000000E+00  0.000000E+00  0.000000E+00  5.755901E-03  3.566613E-03 -8.618342E-04  4.434739E-03                                                                                                                                                                                                                                                                                                                                                                                                                                                                                              
  9.350000E+02  1.250000E+02 -4.725000E+03  9.692399E-09  4.853856E-09 -1.565270E-09  8.242125E-09  5.079850E-11  2.589164E-11 -8.340252E-12  4.290164E-11  0.000000E+00  0.000000E+00  0.000000E+00  0.000000E+00  0.000000E+00  0.000000E+00  0.000000E+00  0.000000E+00  9.350027E-03  4.580617E-03 -1.468616E-03  8.017738E-03                                                                                                                                                                                                                                                                                                                                                                                                                                                                                              
  1.185000E+03  1.250000E+02 -4.725000E+03  1.636611E-08  6.420969E-09 -2.938733E-09  1.476430E-08  8.546679E-11  3.428634E-11 -1.568498E-11  7.670072E-11  0.000000E+00  0.000000E+00  0.000000E+00  0.000000E+00  0.000000E+00  0.000000E+00  0.000000E+00  0.000000E+00  1.584409E-02  6.088875E-03 -2.780222E-03  1.436075E-02                                                                                                                                                                                                                                                                                                                                                                                                                                                                                              