Title="TOUGHREACT V3.30-OMP flowvector.tec: Liq & Gas Fluxes (kg/s/m^2), Pore Velocities (m/s), & Heat Fluxes (J/s/m2)"                                                                                                                                                                                                                                                                                                                                                                                                                                                                                                                                                                                                                                                                                                         
Variables= "X(m)"     "Y(m)"      "Z(m)"     "FluxLiq"   "FluxLiq_X"   "FluxLiq_Y"   "FluxLiq_Z"   "PorVelLiq"  "PorVelLiqX"  "PorVelLiqY"  "PorVelLiqZ"     "FluxGas"   "FluxGas_X"   "FluxGas_Y"   "FluxGas_Z"   "PorVelGas"  "PorVelGasX"  "PorVelGasY"  "PorVelGasZ"    "HeatFlux"  "HeatFlux_X"  "HeatFlux_Y"  "HeatFlux_Z"                                                                                                                                                                                                                                                                                                                                                                                                                                                                                                
Zone T= "1.33000000E+10 sec" I=     9 J=    10 K=    23 F=Point
  1.250000E+02  1.250000E+02 -5.425000E+03  5.646032E-10  2.906514E-10 -4.839831E-10 -7.676617E-12  3.143349E-12  1.618166E-12 -2.694510E-12 -4.241733E-14  0.000000E+00  0.000000E+00  0.000000E+00  0.000000E+00  0.000000E+00  0.000000E+00  0.000000E+00  0.000000E+00  6.216535E-04  3.200221E-04 -5.328921E-04 -8.058561E-06                                                                                                                                                                                                                                                                                                                                                                                                                                                                                              
  3.750000E+02  1.250000E+02 -5.425000E+03  1.421822E-09  1.295975E-09 -5.367796E-10 -2.321516E-10  7.914261E-12  7.215203E-12 -2.988459E-12 -1.282765E-12  0.000000E+00  0.000000E+00  0.000000E+00  0.000000E+00  0.000000E+00  0.000000E+00  0.000000E+00  0.000000E+00  1.563611E-03  1.426944E-03 -5.910311E-04 -2.437063E-04                                                                                                                                                                                                                                                                                                                                                                                                                                                                                              
  6.250000E+02  1.250000E+02 -5.425000E+03  3.135600E-09  3.046271E-09 -6.508710E-10 -3.585933E-10  1.745547E-11  1.695984E-11 -3.623673E-12 -1.981439E-12  0.000000E+00  0.000000E+00  0.000000E+00  0.000000E+00  0.000000E+00  0.000000E+00  0.000000E+00  0.000000E+00  3.450453E-03  3.354148E-03 -7.166631E-04 -3.764501E-04                                                                                                                                                                                                                                                                                                                                                                                                                                                                                              
  7.600000E+02  1.250000E+02 -5.425000E+03  4.217645E-09  4.145588E-09 -7.618291E-10 -1.491556E-10  2.348121E-11  2.308025E-11 -4.241430E-12 -8.241740E-13  0.000000E+00  0.000000E+00  0.000000E+00  0.000000E+00  0.000000E+00  0.000000E+00  0.000000E+00  0.000000E+00  4.643653E-03  4.564576E-03 -8.388331E-04 -1.565817E-04                                                                                                                                                                                                                                                                                                                                                                                                                                                                                              
  7.800000E+02  1.250000E+02 -5.425000E+03  4.341680E-09  4.269729E-09 -7.787205E-10 -1.148711E-10  2.417189E-11  2.377143E-11 -4.335473E-12 -6.347319E-13  0.000000E+00  0.000000E+00  0.000000E+00  0.000000E+00  0.000000E+00  0.000000E+00  0.000000E+00  0.000000E+00  4.780327E-03  4.701254E-03 -8.574311E-04 -1.205901E-04                                                                                                                                                                                                                                                                                                                                                                                                                                                                                              
  8.000000E+02  1.250000E+02 -5.425000E+03  4.459251E-09  4.386948E-09 -7.960419E-10 -7.694557E-11  2.482653E-11  2.442404E-11 -4.431910E-12 -4.251708E-13  0.000000E+00  0.000000E+00  0.000000E+00  0.000000E+00  0.000000E+00  0.000000E+00  0.000000E+00  0.000000E+00  4.909863E-03  4.830318E-03 -8.765025E-04 -8.077637E-05                                                                                                                                                                                                                                                                                                                                                                                                                                                                                              
  9.350000E+02  1.250000E+02 -5.425000E+03  4.896925E-09  4.806319E-09 -9.156889E-10  2.017052E-10  2.726303E-11  2.675890E-11 -5.098044E-12  1.115385E-12  0.000000E+00  0.000000E+00  0.000000E+00  0.000000E+00  0.000000E+00  0.000000E+00  0.000000E+00  0.000000E+00  5.391824E-03  5.292060E-03 -1.008236E-03  2.220897E-04                                                                                                                                                                                                                                                                                                                                                                                                                                                                                              
  1.185000E+03  1.250000E+02 -5.425000E+03  4.690230E-09  4.430407E-09 -1.164232E-09  1.007129E-09  2.610455E-11  2.466612E-11 -6.481819E-12  5.569230E-12  0.000000E+00  0.000000E+00  0.000000E+00  0.000000E+00  0.000000E+00  0.000000E+00  0.000000E+00  0.000000E+00  5.164211E-03  4.878134E-03 -1.281884E-03  1.108902E-03                                                                                                                                                                                                                                                                                                                                                                                                                                                                                              
  1.435000E+03  1.250000E+02 -5.425000E+03  2.884089E-09  1.845949E-09 -1.333273E-09  1.769979E-09  1.601631E-11  1.027728E-11 -7.422981E-12  9.787704E-12  0.000000E+00  0.000000E+00  0.000000E+00  0.000000E+00  0.000000E+00  0.000000E+00  0.000000E+00  0.000000E+00  3.175532E-03  2.032488E-03 -1.468001E-03  1.948837E-03                                                                                                                                                                                                                                                                                                                                                                                                                                                                                              
  1.250000E+02  1.250000E+02 -5.225000E+03  5.659362E-09  9.352292E-11 -5.944342E-10 -5.627280E-09  3.084675E-11  5.132909E-13 -3.262481E-12 -3.066944E-11  0.000000E+00  0.000000E+00  0.000000E+00  0.000000E+00  0.000000E+00  0.000000E+00  0.000000E+00  0.000000E+00  5.666847E-03  9.817608E-05 -6.240141E-04 -5.631529E-03                                                                                                                                                                                                                                                                                                                                                                                                                                                                                              
  3.750000E+02  1.250000E+02 -5.225000E+03  6.784317E-09  9.596371E-10 -6.712592E-10 -6.682475E-09  3.699965E-11  5.266900E-12 -3.684151E-12 -3.643708E-11  0.000000E+00  0.000000E+00  0.000000E+00  0.000000E+00  0.000000E+00  0.000000E+00  0.000000E+00  0.000000E+00  6.810104E-03  1.007398E-03 -7.046825E-04 -6.698215E-03                                                                                                                                                                                                                                                                                                                                                                                                                                                                                              
  6.250000E+02  1.250000E+02 -5.225000E+03  8.154677E-09  3.174845E-09 -8.156695E-10 -7.466847E-09  4.451821E-11  1.742498E-11 -4.476786E-12 -4.072099E-11  0.000000E+00  0.000000E+00  0.000000E+00  0.000000E+00  0.000000E+00  0.000000E+00  0.000000E+00  0.000000E+00  8.241235E-03  3.332920E-03 -8.563173E-04 -7.488412E-03                                                                                                                                                                                                                                                                                                                                                                                                                                                                                              
  7.600000E+02  1.250000E+02 -5.225000E+03  8.206837E-09  4.713069E-09 -9.687193E-10 -6.648363E-09  4.484487E-11  2.586751E-11 -5.316796E-12 -3.624452E-11  0.000000E+00  0.000000E+00  0.000000E+00  0.000000E+00  0.000000E+00  0.000000E+00  0.000000E+00  0.000000E+00  8.358076E-03  4.947743E-03 -1.016979E-03 -6.659056E-03                                                                                                                                                                                                                                                                                                                                                                                                                                                                                              
  7.800000E+02  1.250000E+02 -5.225000E+03  8.205020E-09  4.900229E-09 -9.920643E-10 -6.505838E-09  4.484145E-11  2.689476E-11 -5.444924E-12 -3.546520E-11  0.000000E+00  0.000000E+00  0.000000E+00  0.000000E+00  0.000000E+00  0.000000E+00  0.000000E+00  0.000000E+00  8.365989E-03  5.144196E-03 -1.041484E-03 -6.514777E-03                                                                                                                                                                                                                                                                                                                                                                                                                                                                                              
  8.000000E+02  1.250000E+02 -5.225000E+03  8.152568E-09  5.074794E-09 -1.016046E-09 -6.299087E-09  4.456283E-11  2.785285E-11 -5.576549E-12 -3.433608E-11  0.000000E+00  0.000000E+00  0.000000E+00  0.000000E+00  0.000000E+00  0.000000E+00  0.000000E+00  0.000000E+00  8.324334E-03  5.327447E-03 -1.066658E-03 -6.306749E-03                                                                                                                                                                                                                                                                                                                                                                                                                                                                                              
  9.350000E+02  1.250000E+02 -5.225000E+03  7.764599E-09  5.727083E-09 -1.180188E-09 -5.108491E-09  4.247658E-11  3.143294E-11 -6.477432E-12 -2.782575E-11  0.000000E+00  0.000000E+00  0.000000E+00  0.000000E+00  0.000000E+00  0.000000E+00  0.000000E+00  0.000000E+00  7.975364E-03  6.012175E-03 -1.238953E-03 -5.091677E-03                                                                                                                                                                                                                                                                                                                                                                                                                                                                                              
  1.185000E+03  1.250000E+02 -5.225000E+03  6.024216E-09  5.537011E-09 -1.531258E-09 -1.813267E-09  3.301920E-11  3.038988E-11 -8.404305E-12 -9.802574E-12  0.000000E+00  0.000000E+00  0.000000E+00  0.000000E+00  0.000000E+00  0.000000E+00  0.000000E+00  0.000000E+00  6.269482E-03  5.812591E-03 -1.607463E-03 -1.713549E-03                                                                                                                                                                                                                                                                                                                                                                                                                                                                                              
  1.435000E+03  1.250000E+02 -5.225000E+03  3.378331E-09  2.388832E-09 -1.777639E-09  1.595809E-09  1.857988E-11  1.311116E-11 -9.756628E-12  8.838420E-12  0.000000E+00  0.000000E+00  0.000000E+00  0.000000E+00  0.000000E+00  0.000000E+00  0.000000E+00  0.000000E+00  3.594428E-03  2.507712E-03 -1.866100E-03  1.774533E-03                                                                                                                                                                                                                                                                                                                                                                                                                                                                                              
  1.250000E+02  1.250000E+02 -4.975000E+03  1.551754E-08 -7.358067E-10 -1.074205E-09 -1.546282E-08  8.387099E-11 -3.986132E-12 -5.819372E-12 -8.357386E-11  0.000000E+00  0.000000E+00  0.000000E+00  0.000000E+00  0.000000E+00  0.000000E+00  0.000000E+00  0.000000E+00  1.501691E-02 -7.362842E-04 -1.074928E-03 -1.496028E-02                                                                                                                                                                                                                                                                                                                                                                                                                                                                                              
  3.750000E+02  1.250000E+02 -4.975000E+03  1.867710E-08 -5.151614E-10 -1.276621E-09 -1.862629E-08  1.008854E-10 -2.790844E-12 -6.915799E-12 -1.006094E-10  0.000000E+00  0.000000E+00  0.000000E+00  0.000000E+00  0.000000E+00  0.000000E+00  0.000000E+00  0.000000E+00  1.799991E-02 -5.154957E-04 -1.277373E-03 -1.794713E-02                                                                                                                                                                                                                                                                                                                                                                                                                                                                                              
  6.250000E+02  1.250000E+02 -4.975000E+03  2.229171E-08  3.619955E-09 -1.521992E-09 -2.194310E-08  1.203019E-10  1.960982E-11 -8.244760E-12 -1.184062E-10  0.000000E+00  0.000000E+00  0.000000E+00  0.000000E+00  0.000000E+00  0.000000E+00  0.000000E+00  0.000000E+00  2.136038E-02  3.621872E-03 -1.522697E-03 -2.099593E-02                                                                                                                                                                                                                                                                                                                                                                                                                                                                                              
  7.600000E+02  1.250000E+02 -4.975000E+03  2.217995E-08  7.098210E-09 -1.886865E-09 -2.092857E-08  1.197179E-10  3.845204E-11 -1.022129E-11 -1.129129E-10  0.000000E+00  0.000000E+00  0.000000E+00  0.000000E+00  0.000000E+00  0.000000E+00  0.000000E+00  0.000000E+00  2.131813E-02  7.101843E-03 -1.887690E-03 -2.001157E-02                                                                                                                                                                                                                                                                                                                                                                                                                                                                                              
  7.800000E+02  1.250000E+02 -4.975000E+03  2.216578E-08  7.700621E-09 -1.945370E-09 -2.069391E-08  1.196498E-10  4.171580E-11 -1.053824E-11 -1.116459E-10  0.000000E+00  0.000000E+00  0.000000E+00  0.000000E+00  0.000000E+00  0.000000E+00  0.000000E+00  0.000000E+00  2.132352E-02  7.704497E-03 -1.946235E-03 -1.978750E-02                                                                                                                                                                                                                                                                                                                                                                                                                                                                                              
  8.000000E+02  1.250000E+02 -4.975000E+03  2.043884E-08  8.173961E-09 -2.008877E-09 -1.862517E-08  1.104206E-10  4.428088E-11 -1.088247E-11 -1.005659E-10  0.000000E+00  0.000000E+00  0.000000E+00  0.000000E+00  0.000000E+00  0.000000E+00  0.000000E+00  0.000000E+00  1.978408E-02  8.178547E-03 -2.009811E-03 -1.790201E-02                                                                                                                                                                                                                                                                                                                                                                                                                                                                                              
  9.350000E+02  1.250000E+02 -4.975000E+03  1.856596E-08  9.717822E-09 -2.408525E-09 -1.563515E-08  1.003742E-10  5.264578E-11 -1.304787E-11 -8.445797E-11  0.000000E+00  0.000000E+00  0.000000E+00  0.000000E+00  0.000000E+00  0.000000E+00  0.000000E+00  0.000000E+00  1.810081E-02  9.724120E-03 -2.410003E-03 -1.507556E-02                                                                                                                                                                                                                                                                                                                                                                                                                                                                                              
  1.185000E+03  1.250000E+02 -4.975000E+03  1.349302E-08  1.050773E-08 -3.306460E-09 -7.792086E-09  7.304628E-11  5.692644E-11 -1.791290E-11 -4.212207E-11  0.000000E+00  0.000000E+00  0.000000E+00  0.000000E+00  0.000000E+00  0.000000E+00  0.000000E+00  0.000000E+00  1.335955E-02  1.051507E-02 -3.308741E-03 -7.547392E-03                                                                                                                                                                                                                                                                                                                                                                                                                                                                                              
  1.435000E+03  1.250000E+02 -4.975000E+03  6.817507E-09  4.962145E-09 -3.938898E-09  2.518055E-09  3.690247E-11  2.688325E-11 -2.133975E-11  1.355354E-11  0.000000E+00  0.000000E+00  0.000000E+00  0.000000E+00  0.000000E+00  0.000000E+00  0.000000E+00  0.000000E+00  6.822558E-03  4.965761E-03 -3.941837E-03  2.520007E-03                                                                                                                                                                                                                                                                                                                                                                                                                                                                                              
  1.250000E+02  1.250000E+02 -4.725000E+03  2.318936E-08 -1.335637E-09 -1.571265E-09 -2.309748E-08  1.209597E-10 -7.135754E-12 -8.397337E-12 -1.204567E-10  0.000000E+00  0.000000E+00  0.000000E+00  0.000000E+00  0.000000E+00  0.000000E+00  0.000000E+00  0.000000E+00  1.586216E-02 -1.260678E-03 -1.487120E-03 -1.574190E-02                                                                                                                                                                                                                                                                                                                                                                                                                                                                                              
  3.750000E+02  1.250000E+02 -4.725000E+03  3.152160E-08 -8.893630E-10 -1.236929E-09 -3.148476E-08  1.636011E-10 -4.755508E-12 -6.599558E-12 -1.633988E-10  0.000000E+00  0.000000E+00  0.000000E+00  0.000000E+00  0.000000E+00  0.000000E+00  0.000000E+00  0.000000E+00  1.999694E-02 -8.394494E-04 -1.160542E-03 -1.994558E-02                                                                                                                                                                                                                                                                                                                                                                                                                                                                                              
  6.250000E+02  1.250000E+02 -4.725000E+03  3.893042E-08  4.261981E-09 -1.149253E-09 -3.867936E-08  2.016721E-10  2.271217E-11 -6.118255E-12 -2.002957E-10  0.000000E+00  0.000000E+00  0.000000E+00  0.000000E+00  0.000000E+00  0.000000E+00  0.000000E+00  0.000000E+00  2.414052E-02  3.992358E-03 -1.067732E-03 -2.378415E-02                                                                                                                                                                                                                                                                                                                                                                                                                                                                                              
  7.600000E+02  1.250000E+02 -4.725000E+03  4.092462E-08  8.143363E-09 -2.079522E-09 -4.005229E-08  2.119064E-10  4.339338E-11 -1.107252E-11 -2.071201E-10  0.000000E+00  0.000000E+00  0.000000E+00  0.000000E+00  0.000000E+00  0.000000E+00  0.000000E+00  0.000000E+00  2.538606E-02  7.622780E-03 -1.933958E-03 -2.413722E-02                                                                                                                                                                                                                                                                                                                                                                                                                                                                                              
  7.800000E+02  1.250000E+02 -4.725000E+03  4.134230E-08  9.214666E-09 -2.247490E-09 -4.023959E-08  2.140829E-10  4.912145E-11 -1.196786E-11 -2.080272E-10  0.000000E+00  0.000000E+00  0.000000E+00  0.000000E+00  0.000000E+00  0.000000E+00  0.000000E+00  0.000000E+00  2.571646E-02  8.627861E-03 -2.091216E-03 -2.413552E-02                                                                                                                                                                                                                                                                                                                                                                                                                                                                                              
  8.000000E+02  1.250000E+02 -4.725000E+03  3.332610E-08  9.995810E-09 -2.448089E-09 -3.169731E-08  1.736354E-10  5.333461E-11 -1.304621E-11 -1.647254E-10  0.000000E+00  0.000000E+00  0.000000E+00  0.000000E+00  0.000000E+00  0.000000E+00  0.000000E+00  0.000000E+00  2.285657E-02  9.385563E-03 -2.280188E-03 -2.071557E-02                                                                                                                                                                                                                                                                                                                                                                                                                                                                                              
  9.350000E+02  1.250000E+02 -4.725000E+03  3.066528E-08  1.400045E-08 -3.847398E-09 -2.701008E-08  1.605518E-10  7.480106E-11 -2.053393E-11 -1.405704E-10  0.000000E+00  0.000000E+00  0.000000E+00  0.000000E+00  0.000000E+00  0.000000E+00  0.000000E+00  0.000000E+00  2.267847E-02  1.321602E-02 -3.612497E-03 -1.807207E-02                                                                                                                                                                                                                                                                                                                                                                                                                                                                                              
  1.185000E+03  1.250000E+02 -4.725000E+03  2.448055E-08  2.044617E-08 -7.435643E-09 -1.122330E-08  1.304056E-10  1.093444E-10 -3.974999E-11 -5.890119E-11  0.000000E+00  0.000000E+00  0.000000E+00  0.000000E+00  0.000000E+00  0.000000E+00  0.000000E+00  0.000000E+00  2.228195E-02  1.938773E-02 -7.038700E-03 -8.429572E-03                                                                                                                                                                                                                                                                                                                                                                                                                                                                                              