Title="TOUGHREACT V3.30-OMP flowvector.tec: Liq & Gas Fluxes (kg/s/m^2), Pore Velocities (m/s), & Heat Fluxes (J/s/m2)"                                                                                                                                                                                                                                                                                                                                                                                                                                                                                                                                                                                                                                                                                                         
Variables= "X(m)"     "Y(m)"      "Z(m)"     "FluxLiq"   "FluxLiq_X"   "FluxLiq_Y"   "FluxLiq_Z"   "PorVelLiq"  "PorVelLiqX"  "PorVelLiqY"  "PorVelLiqZ"     "FluxGas"   "FluxGas_X"   "FluxGas_Y"   "FluxGas_Z"   "PorVelGas"  "PorVelGasX"  "PorVelGasY"  "PorVelGasZ"    "HeatFlux"  "HeatFlux_X"  "HeatFlux_Y"  "HeatFlux_Z"                                                                                                                                                                                                                                                                                                                                                                                                                                                                                                
Zone T= "7.33000000E+10 sec" I=     9 J=    10 K=    23 F=Point
  1.250000E+02  1.250000E+02 -5.425000E+03  4.010644E-09 -1.975042E-10 -2.763947E-10  3.996231E-09  2.231637E-11 -1.115582E-12 -1.561185E-12  2.223373E-11  0.000000E+00  0.000000E+00  0.000000E+00  0.000000E+00  0.000000E+00  0.000000E+00  0.000000E+00  0.000000E+00  4.634056E-03 -2.282059E-04 -3.193584E-04  4.617402E-03                                                                                                                                                                                                                                                                                                                                                                                                                                                                                              
  3.750000E+02  1.250000E+02 -5.425000E+03  3.790086E-09 -1.923195E-10 -3.043981E-10  3.772944E-09  2.108974E-11 -1.086296E-12 -1.719364E-12  2.099145E-11  0.000000E+00  0.000000E+00  0.000000E+00  0.000000E+00  0.000000E+00  0.000000E+00  0.000000E+00  0.000000E+00  4.379249E-03 -2.222152E-04 -3.517189E-04  4.359442E-03                                                                                                                                                                                                                                                                                                                                                                                                                                                                                              
  6.250000E+02  1.250000E+02 -5.425000E+03  3.613594E-09  6.128077E-10 -3.263165E-10  3.546272E-09  2.011633E-11  3.461395E-12 -1.843175E-12  1.973038E-11  0.000000E+00  0.000000E+00  0.000000E+00  0.000000E+00  0.000000E+00  0.000000E+00  0.000000E+00  0.000000E+00  4.175361E-03  7.080742E-04 -3.770496E-04  4.097573E-03                                                                                                                                                                                                                                                                                                                                                                                                                                                                                              
  7.600000E+02  1.250000E+02 -5.425000E+03  3.862159E-09  1.251732E-09 -3.333922E-10  3.638446E-09  2.152495E-11  7.070311E-12 -1.883141E-12  2.024322E-11  0.000000E+00  0.000000E+00  0.000000E+00  0.000000E+00  0.000000E+00  0.000000E+00  0.000000E+00  0.000000E+00  4.462556E-03  1.446324E-03 -3.852237E-04  4.204064E-03                                                                                                                                                                                                                                                                                                                                                                                                                                                                                              
  7.800000E+02  1.250000E+02 -5.425000E+03  3.900753E-09  1.322650E-09 -3.343210E-10  3.654408E-09  2.174331E-11  7.470885E-12 -1.888387E-12  2.033203E-11  0.000000E+00  0.000000E+00  0.000000E+00  0.000000E+00  0.000000E+00  0.000000E+00  0.000000E+00  0.000000E+00  4.507147E-03  1.528264E-03 -3.862966E-04  4.222507E-03                                                                                                                                                                                                                                                                                                                                                                                                                                                                                              
  8.000000E+02  1.250000E+02 -5.425000E+03  3.941348E-09  1.389050E-09 -3.351186E-10  3.673208E-09  2.197266E-11  7.845938E-12 -1.892892E-12  2.043664E-11  0.000000E+00  0.000000E+00  0.000000E+00  0.000000E+00  0.000000E+00  0.000000E+00  0.000000E+00  0.000000E+00  4.554050E-03  1.604985E-03 -3.872179E-04  4.244227E-03                                                                                                                                                                                                                                                                                                                                                                                                                                                                                              
  9.350000E+02  1.250000E+02 -5.425000E+03  4.144140E-09  1.602839E-09 -3.395087E-10  3.806512E-09  2.311200E-11  9.053502E-12 -1.917689E-12  2.117832E-11  0.000000E+00  0.000000E+00  0.000000E+00  0.000000E+00  0.000000E+00  0.000000E+00  0.000000E+00  0.000000E+00  4.788351E-03  1.852004E-03 -3.922881E-04  4.398238E-03                                                                                                                                                                                                                                                                                                                                                                                                                                                                                              
  1.185000E+03  1.250000E+02 -5.425000E+03  4.355361E-09  1.492562E-09 -3.198760E-10  4.079107E-09  2.427767E-11  8.430616E-12 -1.806794E-12  2.269506E-11  0.000000E+00  0.000000E+00  0.000000E+00  0.000000E+00  0.000000E+00  0.000000E+00  0.000000E+00  0.000000E+00  5.032379E-03  1.724578E-03 -3.695993E-04  4.713180E-03                                                                                                                                                                                                                                                                                                                                                                                                                                                                                              
  1.435000E+03  1.250000E+02 -5.425000E+03  4.297595E-09  6.002327E-10 -2.893618E-10  4.245623E-09  2.391960E-11  3.390369E-12 -1.634439E-12  2.362163E-11  0.000000E+00  0.000000E+00  0.000000E+00  0.000000E+00  0.000000E+00  0.000000E+00  0.000000E+00  0.000000E+00  4.965624E-03  6.935353E-04 -3.343406E-04  4.905573E-03                                                                                                                                                                                                                                                                                                                                                                                                                                                                                              
  1.250000E+02  1.250000E+02 -5.225000E+03  8.763635E-09 -3.592077E-10 -3.376625E-10  8.749757E-09  4.819781E-11 -1.968153E-12 -1.850103E-12  4.812206E-11  0.000000E+00  0.000000E+00  0.000000E+00  0.000000E+00  0.000000E+00  0.000000E+00  0.000000E+00  0.000000E+00  9.623918E-03 -3.772727E-04 -3.546431E-04  9.609979E-03                                                                                                                                                                                                                                                                                                                                                                                                                                                                                              
  3.750000E+02  1.250000E+02 -5.225000E+03  7.849744E-09 -5.313333E-10 -4.041007E-10  7.821308E-09  4.319426E-11 -2.911255E-12 -2.214128E-12  4.303912E-11  0.000000E+00  0.000000E+00  0.000000E+00  0.000000E+00  0.000000E+00  0.000000E+00  0.000000E+00  0.000000E+00  8.639898E-03 -5.580563E-04 -4.244267E-04  8.611403E-03                                                                                                                                                                                                                                                                                                                                                                                                                                                                                              
  6.250000E+02  1.250000E+02 -5.225000E+03  6.752535E-09  5.351208E-10 -4.469394E-10  6.716444E-09  3.719164E-11  2.932015E-12 -2.448858E-12  3.699492E-11  0.000000E+00  0.000000E+00  0.000000E+00  0.000000E+00  0.000000E+00  0.000000E+00  0.000000E+00  0.000000E+00  7.463220E-03  5.620378E-04 -4.694309E-04  7.427207E-03                                                                                                                                                                                                                                                                                                                                                                                                                                                                                              
  7.600000E+02  1.250000E+02 -5.225000E+03  7.249004E-09  1.471030E-09 -4.561822E-10  7.083504E-09  3.990720E-11  8.060018E-12 -2.499501E-12  3.900479E-11  0.000000E+00  0.000000E+00  0.000000E+00  0.000000E+00  0.000000E+00  0.000000E+00  0.000000E+00  0.000000E+00  7.987919E-03  1.545025E-03 -4.791354E-04  7.822415E-03                                                                                                                                                                                                                                                                                                                                                                                                                                                                                              
  7.800000E+02  1.250000E+02 -5.225000E+03  7.342594E-09  1.580974E-09 -4.572595E-10  7.155775E-09  4.041900E-11  8.662429E-12 -2.505404E-12  3.940027E-11  0.000000E+00  0.000000E+00  0.000000E+00  0.000000E+00  0.000000E+00  0.000000E+00  0.000000E+00  0.000000E+00  8.086897E-03  1.660500E-03 -4.802664E-04  7.899999E-03                                                                                                                                                                                                                                                                                                                                                                                                                                                                                              
  8.000000E+02  1.250000E+02 -5.225000E+03  7.504201E-09  1.679373E-09 -4.580440E-10  7.299516E-09  4.130201E-11  9.201580E-12 -2.509703E-12  4.018568E-11  0.000000E+00  0.000000E+00  0.000000E+00  0.000000E+00  0.000000E+00  0.000000E+00  0.000000E+00  0.000000E+00  8.257883E-03  1.763851E-03 -4.810899E-04  8.052951E-03                                                                                                                                                                                                                                                                                                                                                                                                                                                                                              
  9.350000E+02  1.250000E+02 -5.225000E+03  8.183603E-09  1.911215E-09 -4.592205E-10  7.944037E-09  4.501904E-11  1.047191E-11 -2.516151E-12  4.371181E-11  0.000000E+00  0.000000E+00  0.000000E+00  0.000000E+00  0.000000E+00  0.000000E+00  0.000000E+00  0.000000E+00  8.984319E-03  2.007358E-03 -4.823222E-04  8.743904E-03                                                                                                                                                                                                                                                                                                                                                                                                                                                                                              
  1.185000E+03  1.250000E+02 -5.225000E+03  9.160963E-09  1.737146E-09 -4.054278E-10  8.985611E-09  5.037439E-11  9.518207E-12 -2.221425E-12  4.941708E-11  0.000000E+00  0.000000E+00  0.000000E+00  0.000000E+00  0.000000E+00  0.000000E+00  0.000000E+00  0.000000E+00  1.004292E-02  1.824547E-03 -4.258241E-04  9.866603E-03                                                                                                                                                                                                                                                                                                                                                                                                                                                                                              
  1.435000E+03  1.250000E+02 -5.225000E+03  9.605518E-09  6.881137E-10 -3.331678E-10  9.575044E-09  5.281387E-11  3.770349E-12 -1.825513E-12  5.264747E-11  0.000000E+00  0.000000E+00  0.000000E+00  0.000000E+00  0.000000E+00  0.000000E+00  0.000000E+00  0.000000E+00  1.053398E-02  7.227429E-04 -3.499355E-04  1.050333E-02                                                                                                                                                                                                                                                                                                                                                                                                                                                                                              
  1.250000E+02  1.250000E+02 -4.975000E+03  1.121824E-08 -1.002294E-09 -6.038646E-10  1.115704E-08  6.063638E-11 -5.420741E-12 -3.265924E-12  6.030522E-11  0.000000E+00  0.000000E+00  0.000000E+00  0.000000E+00  0.000000E+00  0.000000E+00  0.000000E+00  0.000000E+00  1.146337E-02 -1.003356E-03 -6.045305E-04  1.140336E-02                                                                                                                                                                                                                                                                                                                                                                                                                                                                                              
  3.750000E+02  1.250000E+02 -4.975000E+03  9.229535E-09 -1.950954E-09 -8.926592E-10  8.976706E-09  4.988605E-11 -1.055122E-11 -4.827673E-12  4.851787E-11  0.000000E+00  0.000000E+00  0.000000E+00  0.000000E+00  0.000000E+00  0.000000E+00  0.000000E+00  0.000000E+00  9.433229E-03 -1.952847E-03 -8.935179E-04  9.185522E-03                                                                                                                                                                                                                                                                                                                                                                                                                                                                                              
  6.250000E+02  1.250000E+02 -4.975000E+03  5.373157E-09  2.348139E-10 -1.023875E-09  5.269475E-09  2.908704E-11  1.269737E-12 -5.536996E-12  2.852692E-11  0.000000E+00  0.000000E+00  0.000000E+00  0.000000E+00  0.000000E+00  0.000000E+00  0.000000E+00  0.000000E+00  5.531588E-03  2.350198E-04 -1.024637E-03  5.430778E-03                                                                                                                                                                                                                                                                                                                                                                                                                                                                                              
  7.600000E+02  1.250000E+02 -4.975000E+03  5.960233E-09  2.584303E-09 -1.054600E-09  5.266268E-09  3.227909E-11  1.397590E-11 -5.703145E-12  2.853223E-11  0.000000E+00  0.000000E+00  0.000000E+00  0.000000E+00  0.000000E+00  0.000000E+00  0.000000E+00  0.000000E+00  6.116386E-03  2.586561E-03 -1.055366E-03  5.441147E-03                                                                                                                                                                                                                                                                                                                                                                                                                                                                                              
  7.800000E+02  1.250000E+02 -4.975000E+03  6.215648E-09  3.023739E-09 -1.060571E-09  5.326018E-09  3.366097E-11  1.635255E-11 -5.735454E-12  2.885757E-11  0.000000E+00  0.000000E+00  0.000000E+00  0.000000E+00  0.000000E+00  0.000000E+00  0.000000E+00  0.000000E+00  6.369979E-03  3.026380E-03 -1.061358E-03  5.503741E-03                                                                                                                                                                                                                                                                                                                                                                                                                                                                                              
  8.000000E+02  1.250000E+02 -4.975000E+03  8.351795E-09  3.307098E-09 -1.068727E-09  7.594301E-09  4.515200E-11  1.788543E-11 -5.779701E-12  4.105374E-11  0.000000E+00  0.000000E+00  0.000000E+00  0.000000E+00  0.000000E+00  0.000000E+00  0.000000E+00  0.000000E+00  8.522988E-03  3.310223E-03 -1.069559E-03  7.780732E-03                                                                                                                                                                                                                                                                                                                                                                                                                                                                                              
  9.350000E+02  1.250000E+02 -4.975000E+03  1.000544E-08  3.395824E-09 -1.062559E-09  9.351377E-09  5.408358E-11  1.836584E-11 -5.746593E-12  5.054410E-11  0.000000E+00  0.000000E+00  0.000000E+00  0.000000E+00  0.000000E+00  0.000000E+00  0.000000E+00  0.000000E+00  1.020695E-02  3.399419E-03 -1.063611E-03  9.565280E-03                                                                                                                                                                                                                                                                                                                                                                                                                                                                                              
  1.185000E+03  1.250000E+02 -4.975000E+03  1.172335E-08  2.746115E-09 -8.323327E-10  1.136675E-08  6.338335E-11  1.485239E-11 -4.501652E-12  6.145397E-11  0.000000E+00  0.000000E+00  0.000000E+00  0.000000E+00  0.000000E+00  0.000000E+00  0.000000E+00  0.000000E+00  1.197133E-02  2.749266E-03 -8.332742E-04  1.162153E-02                                                                                                                                                                                                                                                                                                                                                                                                                                                                                              
  1.435000E+03  1.250000E+02 -4.975000E+03  1.230990E-08  1.034481E-09 -5.162674E-10  1.225548E-08  6.656856E-11  5.595109E-12 -2.792306E-12  6.627422E-11  0.000000E+00  0.000000E+00  0.000000E+00  0.000000E+00  0.000000E+00  0.000000E+00  0.000000E+00  0.000000E+00  1.258619E-02  1.035740E-03 -5.169090E-04  1.253284E-02                                                                                                                                                                                                                                                                                                                                                                                                                                                                                              
  1.250000E+02  1.250000E+02 -4.725000E+03  1.365822E-08 -4.947693E-10 -2.932872E-10  1.364611E-08  7.096391E-11 -2.638895E-12 -1.564810E-12  7.089757E-11  0.000000E+00  0.000000E+00  0.000000E+00  0.000000E+00  0.000000E+00  0.000000E+00  0.000000E+00  0.000000E+00  1.329370E-02 -4.669710E-04 -2.776055E-04  1.328260E-02                                                                                                                                                                                                                                                                                                                                                                                                                                                                                              
  3.750000E+02  1.250000E+02 -4.725000E+03  1.028320E-08 -9.179084E-10 -4.027243E-10  1.023423E-08  5.344619E-11 -4.891847E-12 -2.144930E-12  5.317860E-11  0.000000E+00  0.000000E+00  0.000000E+00  0.000000E+00  0.000000E+00  0.000000E+00  0.000000E+00  0.000000E+00  9.985855E-03 -8.627645E-04 -3.777061E-04  9.941342E-03                                                                                                                                                                                                                                                                                                                                                                                                                                                                                              
  6.250000E+02  1.250000E+02 -4.725000E+03  3.572012E-09  1.248152E-10 -2.949554E-10  3.557625E-09  1.867326E-11  6.613577E-13 -1.567250E-12  1.859562E-11  0.000000E+00  0.000000E+00  0.000000E+00  0.000000E+00  0.000000E+00  0.000000E+00  0.000000E+00  0.000000E+00  3.477974E-03  1.167490E-04 -2.737123E-04  3.465221E-03                                                                                                                                                                                                                                                                                                                                                                                                                                                                                              
  7.600000E+02  1.250000E+02 -4.725000E+03  3.055082E-09  1.196353E-09 -3.666655E-10  2.787081E-09  1.607026E-11  6.362974E-12 -1.948537E-12  1.462768E-11  0.000000E+00  0.000000E+00  0.000000E+00  0.000000E+00  0.000000E+00  0.000000E+00  0.000000E+00  0.000000E+00  2.966759E-03  1.119133E-03 -3.405836E-04  2.726390E-03                                                                                                                                                                                                                                                                                                                                                                                                                                                                                              
  7.800000E+02  1.250000E+02 -4.725000E+03  3.124317E-09  1.400619E-09 -3.815361E-10  2.766596E-09  1.645176E-11  7.452561E-12 -2.027728E-12  1.452612E-11  0.000000E+00  0.000000E+00  0.000000E+00  0.000000E+00  0.000000E+00  0.000000E+00  0.000000E+00  0.000000E+00  3.028872E-03  1.310425E-03 -3.545838E-04  2.707605E-03                                                                                                                                                                                                                                                                                                                                                                                                                                                                                              
  8.000000E+02  1.250000E+02 -4.725000E+03  8.208250E-09  1.530105E-09 -4.005323E-10  8.054422E-09  4.270771E-11  8.149696E-12 -2.130527E-12  4.186874E-11  0.000000E+00  0.000000E+00  0.000000E+00  0.000000E+00  0.000000E+00  0.000000E+00  0.000000E+00  0.000000E+00  7.957881E-03  1.436020E-03 -3.726443E-04  7.818366E-03                                                                                                                                                                                                                                                                                                                                                                                                                                                                                              
  9.350000E+02  1.250000E+02 -4.725000E+03  1.105444E-08  1.617015E-09 -5.103330E-10  1.092362E-08  5.747507E-11  8.623620E-12 -2.718868E-12  5.675936E-11  0.000000E+00  0.000000E+00  0.000000E+00  0.000000E+00  0.000000E+00  0.000000E+00  0.000000E+00  0.000000E+00  1.073847E-02  1.525664E-03 -4.788722E-04  1.061875E-02                                                                                                                                                                                                                                                                                                                                                                                                                                                                                              
  1.185000E+03  1.250000E+02 -4.725000E+03  1.379279E-08  1.395982E-09 -4.617628E-10  1.371420E-08  7.171277E-11  7.452236E-12 -2.464289E-12  7.128192E-11  0.000000E+00  0.000000E+00  0.000000E+00  0.000000E+00  0.000000E+00  0.000000E+00  0.000000E+00  0.000000E+00  1.343809E-02  1.322972E-03 -4.369336E-04  1.336566E-02                                                                                                                                                                                                                                                                                                                                                                                                                                                                                              