Title="TOUGHREACT V3.30-OMP flowvector.tec: Liq & Gas Fluxes (kg/s/m^2), Pore Velocities (m/s), & Heat Fluxes (J/s/m2)"                                                                                                                                                                                                                                                                                                                                                                                                                                                                                                                                                                                                                                                                                                         
Variables= "X(m)"     "Y(m)"      "Z(m)"     "FluxLiq"   "FluxLiq_X"   "FluxLiq_Y"   "FluxLiq_Z"   "PorVelLiq"  "PorVelLiqX"  "PorVelLiqY"  "PorVelLiqZ"     "FluxGas"   "FluxGas_X"   "FluxGas_Y"   "FluxGas_Z"   "PorVelGas"  "PorVelGasX"  "PorVelGasY"  "PorVelGasZ"    "HeatFlux"  "HeatFlux_X"  "HeatFlux_Y"  "HeatFlux_Z"                                                                                                                                                                                                                                                                                                                                                                                                                                                                                                
Zone T= "2.00000000E+10 sec" I=     9 J=    10 K=    23 F=Point
  1.250000E+02  1.250000E+02 -5.425000E+03  2.429471E-09  1.742442E-10 -3.570097E-10  2.396771E-09  1.343373E-11  9.707201E-13 -1.988910E-12  1.325017E-11  0.000000E+00  0.000000E+00  0.000000E+00  0.000000E+00  0.000000E+00  0.000000E+00  0.000000E+00  0.000000E+00  2.690036E-03  1.929322E-04 -3.953012E-04  2.653829E-03                                                                                                                                                                                                                                                                                                                                                                                                                                                                                              
  3.750000E+02  1.250000E+02 -5.425000E+03  2.416458E-09  8.742431E-10 -4.075146E-10  2.215604E-09  1.337555E-11  4.870452E-12 -2.270282E-12  1.224866E-11  0.000000E+00  0.000000E+00  0.000000E+00  0.000000E+00  0.000000E+00  0.000000E+00  0.000000E+00  0.000000E+00  2.675650E-03  9.680136E-04 -4.512284E-04  2.453252E-03                                                                                                                                                                                                                                                                                                                                                                                                                                                                                              
  6.250000E+02  1.250000E+02 -5.425000E+03  3.094256E-09  2.223787E-09 -5.022646E-10  2.092110E-09  1.717808E-11  1.238886E-11 -2.798154E-12  1.156602E-11  0.000000E+00  0.000000E+00  0.000000E+00  0.000000E+00  0.000000E+00  0.000000E+00  0.000000E+00  0.000000E+00  3.426176E-03  2.462328E-03 -5.561496E-04  2.316533E-03                                                                                                                                                                                                                                                                                                                                                                                                                                                                                              
  7.600000E+02  1.250000E+02 -5.425000E+03  3.879437E-09  3.097714E-09 -5.876337E-10  2.260284E-09  2.155659E-11  1.725760E-11 -3.273754E-12  1.249577E-11  0.000000E+00  0.000000E+00  0.000000E+00  0.000000E+00  0.000000E+00  0.000000E+00  0.000000E+00  0.000000E+00  4.295581E-03  3.430005E-03 -6.506743E-04  2.502740E-03                                                                                                                                                                                                                                                                                                                                                                                                                                                                                              
  7.800000E+02  1.250000E+02 -5.425000E+03  3.975682E-09  3.195283E-09 -6.005716E-10  2.288127E-09  2.209279E-11  1.780118E-11 -3.345833E-12  1.264969E-11  0.000000E+00  0.000000E+00  0.000000E+00  0.000000E+00  0.000000E+00  0.000000E+00  0.000000E+00  0.000000E+00  4.402144E-03  3.538034E-03 -6.649996E-04  2.533568E-03                                                                                                                                                                                                                                                                                                                                                                                                                                                                                              
  8.000000E+02  1.250000E+02 -5.425000E+03  4.069505E-09  3.287003E-09 -6.137800E-10  2.319431E-09  2.261528E-11  1.831216E-11 -3.419418E-12  1.282276E-11  0.000000E+00  0.000000E+00  0.000000E+00  0.000000E+00  0.000000E+00  0.000000E+00  0.000000E+00  0.000000E+00  4.506030E-03  3.639590E-03 -6.796244E-04  2.568228E-03                                                                                                                                                                                                                                                                                                                                                                                                                                                                                              
  9.350000E+02  1.250000E+02 -5.425000E+03  4.464681E-09  3.601865E-09 -7.045588E-10  2.542350E-09  2.481150E-11  2.006629E-11 -3.925157E-12  1.405516E-11  0.000000E+00  0.000000E+00  0.000000E+00  0.000000E+00  0.000000E+00  0.000000E+00  0.000000E+00  0.000000E+00  4.943580E-03  3.988217E-03 -7.801366E-04  2.815048E-03                                                                                                                                                                                                                                                                                                                                                                                                                                                                                              
  1.185000E+03  1.250000E+02 -5.425000E+03  4.652517E-09  3.306257E-09 -8.869409E-10  3.150860E-09  2.582879E-11  1.841948E-11 -4.941235E-12  1.741934E-11  0.000000E+00  0.000000E+00  0.000000E+00  0.000000E+00  0.000000E+00  0.000000E+00  0.000000E+00  0.000000E+00  5.151534E-03  3.660884E-03 -9.820715E-04  3.488805E-03                                                                                                                                                                                                                                                                                                                                                                                                                                                                                              
  1.435000E+03  1.250000E+02 -5.425000E+03  4.075542E-09  1.370039E-09 -1.008227E-09  3.703581E-09  2.256189E-11  7.632637E-12 -5.616950E-12  2.047514E-11  0.000000E+00  0.000000E+00  0.000000E+00  0.000000E+00  0.000000E+00  0.000000E+00  0.000000E+00  0.000000E+00  4.512657E-03  1.516982E-03 -1.116362E-03  4.100802E-03                                                                                                                                                                                                                                                                                                                                                                                                                                                                                              
  1.250000E+02  1.250000E+02 -5.225000E+03  3.128696E-09  2.164269E-11 -4.307506E-10  3.098826E-09  1.723888E-11  1.186542E-13 -2.361547E-12  1.707595E-11  0.000000E+00  0.000000E+00  0.000000E+00  0.000000E+00  0.000000E+00  0.000000E+00  0.000000E+00  0.000000E+00  3.421057E-03  2.272380E-05 -4.522700E-04  3.390954E-03                                                                                                                                                                                                                                                                                                                                                                                                                                                                                              
  3.750000E+02  1.250000E+02 -5.225000E+03  2.415959E-09  5.957291E-10 -5.115735E-10  2.284788E-09  1.333945E-11  3.266050E-12 -2.804665E-12  1.262567E-11  0.000000E+00  0.000000E+00  0.000000E+00  0.000000E+00  0.000000E+00  0.000000E+00  0.000000E+00  0.000000E+00  2.657048E-03  6.254956E-04 -5.371437E-04  2.525893E-03                                                                                                                                                                                                                                                                                                                                                                                                                                                                                              
  6.250000E+02  1.250000E+02 -5.225000E+03  2.849870E-09  2.300614E-09 -6.362685E-10  1.556950E-09  1.568833E-11  1.261302E-11 -3.488331E-12  8.652559E-12  0.000000E+00  0.000000E+00  0.000000E+00  0.000000E+00  0.000000E+00  0.000000E+00  0.000000E+00  0.000000E+00  3.074655E-03  2.415606E-03 -6.680955E-04  1.781011E-03                                                                                                                                                                                                                                                                                                                                                                                                                                                                                              
  7.600000E+02  1.250000E+02 -5.225000E+03  4.224556E-09  3.530524E-09 -7.528751E-10  2.194415E-09  2.321642E-11  1.935599E-11 -4.127623E-12  1.213717E-11  0.000000E+00  0.000000E+00  0.000000E+00  0.000000E+00  0.000000E+00  0.000000E+00  0.000000E+00  0.000000E+00  4.506096E-03  3.706999E-03 -7.905248E-04  2.436827E-03                                                                                                                                                                                                                                                                                                                                                                                                                                                                                              
  7.800000E+02  1.250000E+02 -5.225000E+03  4.413869E-09  3.682207E-09 -7.706727E-10  2.308604E-09  2.425370E-11  2.018760E-11 -4.225198E-12  1.276128E-11  0.000000E+00  0.000000E+00  0.000000E+00  0.000000E+00  0.000000E+00  0.000000E+00  0.000000E+00  0.000000E+00  4.704370E-03  3.866252E-03 -8.092108E-04  2.555069E-03                                                                                                                                                                                                                                                                                                                                                                                                                                                                                              
  8.000000E+02  1.250000E+02 -5.225000E+03  4.632334E-09  3.822145E-09 -7.889824E-10  2.495442E-09  2.545105E-11  2.095481E-11 -4.325582E-12  1.378192E-11  0.000000E+00  0.000000E+00  0.000000E+00  0.000000E+00  0.000000E+00  0.000000E+00  0.000000E+00  0.000000E+00  4.936715E-03  4.013183E-03 -8.284344E-04  2.753037E-03                                                                                                                                                                                                                                                                                                                                                                                                                                                                                              
  9.350000E+02  1.250000E+02 -5.225000E+03  5.602574E-09  4.297512E-09 -9.137326E-10  3.476394E-09  3.076940E-11  2.356103E-11 -5.009521E-12  1.914520E-11  0.000000E+00  0.000000E+00  0.000000E+00  0.000000E+00  0.000000E+00  0.000000E+00  0.000000E+00  0.000000E+00  5.974041E-03  4.512296E-03 -9.594081E-04  3.795772E-03                                                                                                                                                                                                                                                                                                                                                                                                                                                                                              
  1.185000E+03  1.250000E+02 -5.225000E+03  7.329696E-09  4.108499E-09 -1.171166E-09  5.955926E-09  4.022762E-11  2.252488E-11 -6.420921E-12  3.270570E-11  0.000000E+00  0.000000E+00  0.000000E+00  0.000000E+00  0.000000E+00  0.000000E+00  0.000000E+00  0.000000E+00  7.843359E-03  4.313823E-03 -1.229689E-03  6.434055E-03                                                                                                                                                                                                                                                                                                                                                                                                                                                                                              
  1.435000E+03  1.250000E+02 -5.225000E+03  8.673605E-09  1.754921E-09 -1.343463E-09  8.387299E-09  4.756887E-11  9.621412E-12 -7.365591E-12  4.599971E-11  0.000000E+00  0.000000E+00  0.000000E+00  0.000000E+00  0.000000E+00  0.000000E+00  0.000000E+00  0.000000E+00  9.312406E-03  1.842623E-03 -1.410602E-03  9.018639E-03                                                                                                                                                                                                                                                                                                                                                                                                                                                                                              
  1.250000E+02  1.250000E+02 -4.975000E+03  1.130064E-09 -5.767734E-10 -7.376925E-10  6.326032E-10  6.131850E-12 -3.121262E-12 -3.992104E-12  3.452595E-12  0.000000E+00  0.000000E+00  0.000000E+00  0.000000E+00  0.000000E+00  0.000000E+00  0.000000E+00  0.000000E+00  1.152782E-03 -5.772472E-04 -7.383203E-04  6.712497E-04                                                                                                                                                                                                                                                                                                                                                                                                                                                                                              
  3.750000E+02  1.250000E+02 -4.975000E+03  1.921932E-09 -5.744655E-10 -9.955614E-10 -1.540347E-09  1.034489E-11 -3.108773E-12 -5.387466E-12 -8.266047E-12  0.000000E+00  0.000000E+00  0.000000E+00  0.000000E+00  0.000000E+00  0.000000E+00  0.000000E+00  0.000000E+00  1.847830E-03 -5.749374E-04 -9.963063E-04 -1.446131E-03                                                                                                                                                                                                                                                                                                                                                                                                                                                                                              
  6.250000E+02  1.250000E+02 -4.975000E+03  5.337033E-09  2.571484E-09 -1.238806E-09 -4.509629E-09  2.873737E-11  1.391514E-11 -6.703509E-12 -2.423362E-11  0.000000E+00  0.000000E+00  0.000000E+00  0.000000E+00  0.000000E+00  0.000000E+00  0.000000E+00  0.000000E+00  5.123459E-03  2.573223E-03 -1.239548E-03 -4.253454E-03                                                                                                                                                                                                                                                                                                                                                                                                                                                                                              
  7.600000E+02  1.250000E+02 -4.975000E+03  6.839757E-09  5.393270E-09 -1.503966E-09 -3.928486E-09  3.690972E-11  2.918479E-11 -8.138340E-12 -2.107945E-11  0.000000E+00  0.000000E+00  0.000000E+00  0.000000E+00  0.000000E+00  0.000000E+00  0.000000E+00  0.000000E+00  6.703318E-03  5.396868E-03 -1.504830E-03 -3.680187E-03                                                                                                                                                                                                                                                                                                                                                                                                                                                                                              
  7.800000E+02  1.250000E+02 -4.975000E+03  7.178372E-09  5.907881E-09 -1.546863E-09 -3.772690E-09  3.875150E-11  3.196985E-11 -8.370486E-12 -2.023716E-11  0.000000E+00  0.000000E+00  0.000000E+00  0.000000E+00  0.000000E+00  0.000000E+00  0.000000E+00  0.000000E+00  7.056524E-03  5.911779E-03 -1.547765E-03 -3.528430E-03                                                                                                                                                                                                                                                                                                                                                                                                                                                                                              
  8.000000E+02  1.250000E+02 -4.975000E+03  6.689452E-09  6.286227E-09 -1.594066E-09 -1.640450E-09  3.617919E-11  3.401800E-11 -8.626095E-12 -8.792061E-12  0.000000E+00  0.000000E+00  0.000000E+00  0.000000E+00  0.000000E+00  0.000000E+00  0.000000E+00  0.000000E+00  6.666546E-03  6.290782E-03 -1.595032E-03 -1.524723E-03                                                                                                                                                                                                                                                                                                                                                                                                                                                                                              
  9.350000E+02  1.250000E+02 -4.975000E+03  7.549068E-09  7.270863E-09 -1.874437E-09  7.806794E-10  4.085729E-11  3.934747E-11 -1.014366E-11  4.266280E-12  0.000000E+00  0.000000E+00  0.000000E+00  0.000000E+00  0.000000E+00  0.000000E+00  0.000000E+00  0.000000E+00  7.561092E-03  7.276860E-03 -1.875888E-03  8.357433E-04                                                                                                                                                                                                                                                                                                                                                                                                                                                                                              
  1.185000E+03  1.250000E+02 -4.975000E+03  1.034299E-08  7.564782E-09 -2.508715E-09  6.592259E-09  5.596368E-11  4.093911E-11 -1.357657E-11  3.565950E-11  0.000000E+00  0.000000E+00  0.000000E+00  0.000000E+00  0.000000E+00  0.000000E+00  0.000000E+00  0.000000E+00  1.044059E-02  7.571523E-03 -2.510903E-03  6.735974E-03                                                                                                                                                                                                                                                                                                                                                                                                                                                                                              
  1.435000E+03  1.250000E+02 -4.975000E+03  1.441862E-08  3.496360E-09 -2.920142E-09  1.368009E-08  7.793797E-11  1.892192E-11 -1.580356E-11  7.393602E-11  0.000000E+00  0.000000E+00  0.000000E+00  0.000000E+00  0.000000E+00  0.000000E+00  0.000000E+00  0.000000E+00  1.465075E-02  3.499620E-03 -2.922923E-03  1.392314E-02                                                                                                                                                                                                                                                                                                                                                                                                                                                                                              
  1.250000E+02  1.250000E+02 -4.725000E+03  1.495238E-09 -2.662671E-10 -6.433092E-10 -1.323250E-09  7.683772E-12 -1.420976E-12 -3.434270E-12 -6.725100E-12  0.000000E+00  0.000000E+00  0.000000E+00  0.000000E+00  0.000000E+00  0.000000E+00  0.000000E+00  0.000000E+00  8.909960E-04 -2.512527E-04 -6.087413E-04 -6.001499E-04                                                                                                                                                                                                                                                                                                                                                                                                                                                                                              
  3.750000E+02  1.250000E+02 -4.725000E+03  5.888753E-09  4.104520E-10 -5.264343E-10 -5.850796E-09  3.030292E-11  2.184184E-12 -2.805523E-12 -3.009361E-11  0.000000E+00  0.000000E+00  0.000000E+00  0.000000E+00  0.000000E+00  0.000000E+00  0.000000E+00  0.000000E+00  3.323331E-03  3.873073E-04 -4.937058E-04 -3.263553E-03                                                                                                                                                                                                                                                                                                                                                                                                                                                                                              
  6.250000E+02  1.250000E+02 -4.725000E+03  1.197424E-08  3.187680E-09 -6.093111E-10 -1.152606E-08  6.191391E-11  1.696886E-11 -3.239928E-12 -5.945497E-11  0.000000E+00  0.000000E+00  0.000000E+00  0.000000E+00  0.000000E+00  0.000000E+00  0.000000E+00  0.000000E+00  7.423357E-03  2.987448E-03 -5.657695E-04 -6.772096E-03                                                                                                                                                                                                                                                                                                                                                                                                                                                                                              
  7.600000E+02  1.250000E+02 -4.725000E+03  1.366396E-08  5.312358E-09 -1.234113E-09 -1.252835E-08  7.071462E-11  2.827400E-11 -6.563204E-12 -6.448304E-11  0.000000E+00  0.000000E+00  0.000000E+00  0.000000E+00  0.000000E+00  0.000000E+00  0.000000E+00  0.000000E+00  8.756957E-03  4.970173E-03 -1.147042E-03 -7.118004E-03                                                                                                                                                                                                                                                                                                                                                                                                                                                                                              
  7.800000E+02  1.250000E+02 -4.725000E+03  1.401841E-08  5.921096E-09 -1.345369E-09 -1.263513E-08  7.259679E-11  3.152669E-11 -7.155454E-12 -6.500124E-11  0.000000E+00  0.000000E+00  0.000000E+00  0.000000E+00  0.000000E+00  0.000000E+00  0.000000E+00  0.000000E+00  9.110898E-03  5.540933E-03 -1.251073E-03 -7.123295E-03                                                                                                                                                                                                                                                                                                                                                                                                                                                                                              
  8.000000E+02  1.250000E+02 -4.725000E+03  8.832980E-09  6.364258E-09 -1.476730E-09 -5.944495E-09  4.638951E-11  3.391891E-11 -7.860517E-12 -3.065463E-11  0.000000E+00  0.000000E+00  0.000000E+00  0.000000E+00  0.000000E+00  0.000000E+00  0.000000E+00  0.000000E+00  7.055443E-03  5.973209E-03 -1.374630E-03 -3.494343E-03                                                                                                                                                                                                                                                                                                                                                                                                                                                                                              
  9.350000E+02  1.250000E+02 -4.725000E+03  9.639503E-09  8.981514E-09 -2.398324E-09 -2.549602E-09  5.127946E-11  4.793415E-11 -1.278535E-11 -1.297826E-11  0.000000E+00  0.000000E+00  0.000000E+00  0.000000E+00  0.000000E+00  0.000000E+00  0.000000E+00  0.000000E+00  8.854731E-03  8.476881E-03 -2.250638E-03 -1.217940E-03                                                                                                                                                                                                                                                                                                                                                                                                                                                                                              
  1.185000E+03  1.250000E+02 -4.725000E+03  1.668411E-08  1.327252E-08 -5.046384E-09  8.759783E-09  8.853030E-11  7.090605E-11 -2.694733E-11  4.564852E-11  0.000000E+00  0.000000E+00  0.000000E+00  0.000000E+00  0.000000E+00  0.000000E+00  0.000000E+00  0.000000E+00  1.592964E-02  1.258612E-02 -4.774729E-03  8.517337E-03                                                                                                                                                                                                                                                                                                                                                                                                                                                                                              