Title="TOUGHREACT V3.30-OMP flowvector.tec: Liq & Gas Fluxes (kg/s/m^2), Pore Velocities (m/s), & Heat Fluxes (J/s/m2)"                                                                                                                                                                                                                                                                                                                                                                                                                                                                                                                                                                                                                                                                                                         
Variables= "X(m)"     "Y(m)"      "Z(m)"     "FluxLiq"   "FluxLiq_X"   "FluxLiq_Y"   "FluxLiq_Z"   "PorVelLiq"  "PorVelLiqX"  "PorVelLiqY"  "PorVelLiqZ"     "FluxGas"   "FluxGas_X"   "FluxGas_Y"   "FluxGas_Z"   "PorVelGas"  "PorVelGasX"  "PorVelGasY"  "PorVelGasZ"    "HeatFlux"  "HeatFlux_X"  "HeatFlux_Y"  "HeatFlux_Z"                                                                                                                                                                                                                                                                                                                                                                                                                                                                                                
Zone T= "6.70000000E+09 sec" I=     9 J=    10 K=    23 F=Point
  1.250000E+02  1.250000E+02 -5.425000E+03  3.156023E-08  1.841378E-10  9.453141E-10 -3.154553E-08  1.751307E-10  1.028745E-12  5.281300E-12 -1.750480E-10  0.000000E+00  0.000000E+00  0.000000E+00  0.000000E+00  0.000000E+00  0.000000E+00  0.000000E+00  0.000000E+00  3.310599E-02  2.014980E-04  1.034437E-03 -3.308921E-02                                                                                                                                                                                                                                                                                                                                                                                                                                                                                              
  3.750000E+02  1.250000E+02 -5.425000E+03  3.122169E-08 -5.047238E-11  9.788515E-10 -3.120630E-08  1.732532E-10 -2.819842E-13  5.468691E-12 -1.731666E-10  0.000000E+00  0.000000E+00  0.000000E+00  0.000000E+00  0.000000E+00  0.000000E+00  0.000000E+00  0.000000E+00  3.275159E-02 -5.523592E-05  1.071146E-03 -3.273402E-02                                                                                                                                                                                                                                                                                                                                                                                                                                                                                              
  6.250000E+02  1.250000E+02 -5.425000E+03  3.101672E-08 -1.203116E-09  9.626075E-10 -3.097842E-08  1.721184E-10 -6.721613E-12  5.377956E-12 -1.719030E-10  0.000000E+00  0.000000E+00  0.000000E+00  0.000000E+00  0.000000E+00  0.000000E+00  0.000000E+00  0.000000E+00  3.253956E-02 -1.316566E-03  1.053381E-03 -3.249585E-02                                                                                                                                                                                                                                                                                                                                                                                                                                                                                              
  7.600000E+02  1.250000E+02 -5.425000E+03  3.111833E-08 -1.978254E-09  9.239537E-10 -3.104164E-08  1.726845E-10 -1.105218E-11  5.161987E-12 -1.722531E-10  0.000000E+00  0.000000E+00  0.000000E+00  0.000000E+00  0.000000E+00  0.000000E+00  0.000000E+00  0.000000E+00  3.264938E-02 -2.164795E-03  1.011079E-03 -3.256184E-02                                                                                                                                                                                                                                                                                                                                                                                                                                                                                              
  7.800000E+02  1.250000E+02 -5.425000E+03  3.113377E-08 -2.057886E-09  9.176176E-10 -3.105212E-08  1.727705E-10 -1.149706E-11  5.126586E-12 -1.723112E-10  0.000000E+00  0.000000E+00  0.000000E+00  0.000000E+00  0.000000E+00  0.000000E+00  0.000000E+00  0.000000E+00  3.266598E-02 -2.251934E-03  1.004145E-03 -3.257279E-02                                                                                                                                                                                                                                                                                                                                                                                                                                                                                              
  8.000000E+02  1.250000E+02 -5.425000E+03  3.114968E-08 -2.131667E-09  9.106347E-10 -3.106331E-08  1.728590E-10 -1.190925E-11  5.087571E-12 -1.723732E-10  0.000000E+00  0.000000E+00  0.000000E+00  0.000000E+00  0.000000E+00  0.000000E+00  0.000000E+00  0.000000E+00  3.268307E-02 -2.332666E-03  9.965027E-04 -3.258449E-02                                                                                                                                                                                                                                                                                                                                                                                                                                                                                              
  9.350000E+02  1.250000E+02 -5.425000E+03  3.124692E-08 -2.333884E-09  8.589364E-10 -3.114780E-08  1.733988E-10 -1.303894E-11  4.798723E-12 -1.728413E-10  0.000000E+00  0.000000E+00  0.000000E+00  0.000000E+00  0.000000E+00  0.000000E+00  0.000000E+00  0.000000E+00  3.278583E-02 -2.553932E-03  9.399249E-04 -3.267269E-02                                                                                                                                                                                                                                                                                                                                                                                                                                                                                              
  1.185000E+03  1.250000E+02 -5.425000E+03  3.137113E-08 -1.987519E-09  6.227485E-10 -3.130192E-08  1.740844E-10 -1.110382E-11  3.479158E-12 -1.736951E-10  0.000000E+00  0.000000E+00  0.000000E+00  0.000000E+00  0.000000E+00  0.000000E+00  0.000000E+00  0.000000E+00  3.291281E-02 -2.174898E-03  6.814608E-04 -3.283380E-02                                                                                                                                                                                                                                                                                                                                                                                                                                                                                              
  1.435000E+03  1.250000E+02 -5.425000E+03  3.124179E-08 -7.371641E-10  4.085728E-10 -3.123042E-08  1.733617E-10 -4.118358E-12  2.282596E-12 -1.732978E-10  0.000000E+00  0.000000E+00  0.000000E+00  0.000000E+00  0.000000E+00  0.000000E+00  0.000000E+00  0.000000E+00  3.277162E-02 -8.066602E-04  4.470909E-04 -3.275864E-02                                                                                                                                                                                                                                                                                                                                                                                                                                                                                              
  1.250000E+02  1.250000E+02 -5.225000E+03  1.212704E-07  4.426232E-10  1.131620E-09 -1.212643E-07  6.664327E-10  2.441724E-12  6.242553E-12 -6.663990E-10  0.000000E+00  0.000000E+00  0.000000E+00  0.000000E+00  0.000000E+00  0.000000E+00  0.000000E+00  0.000000E+00  1.228111E-01  4.642830E-04  1.186996E-03 -1.228045E-01                                                                                                                                                                                                                                                                                                                                                                                                                                                                                              
  3.750000E+02  1.250000E+02 -5.225000E+03  1.197774E-07  3.838641E-10  1.231243E-09 -1.197704E-07  6.582354E-10  2.117578E-12  6.792182E-12 -6.581970E-10  0.000000E+00  0.000000E+00  0.000000E+00  0.000000E+00  0.000000E+00  0.000000E+00  0.000000E+00  0.000000E+00  1.213009E-01  4.026457E-04  1.291519E-03 -1.212934E-01                                                                                                                                                                                                                                                                                                                                                                                                                                                                                              
  6.250000E+02  1.250000E+02 -5.225000E+03  1.188041E-07 -1.090701E-09  1.212591E-09 -1.187929E-07  6.528871E-10 -6.016886E-12  6.689359E-12 -6.528251E-10  0.000000E+00  0.000000E+00  0.000000E+00  0.000000E+00  0.000000E+00  0.000000E+00  0.000000E+00  0.000000E+00  1.203101E-01 -1.144116E-03  1.271988E-03 -1.202979E-01                                                                                                                                                                                                                                                                                                                                                                                                                                                                                              
  7.600000E+02  1.250000E+02 -5.225000E+03  1.191690E-07 -2.114472E-09  1.181810E-09 -1.191443E-07  6.548868E-10 -1.166454E-11  6.519514E-12 -6.547504E-10  0.000000E+00  0.000000E+00  0.000000E+00  0.000000E+00  0.000000E+00  0.000000E+00  0.000000E+00  0.000000E+00  1.206770E-01 -2.218022E-03  1.239687E-03 -1.206503E-01                                                                                                                                                                                                                                                                                                                                                                                                                                                                                              
  7.800000E+02  1.250000E+02 -5.225000E+03  1.192249E-07 -2.211475E-09  1.176266E-09 -1.191985E-07  6.551933E-10 -1.219964E-11  6.488925E-12 -6.550476E-10  0.000000E+00  0.000000E+00  0.000000E+00  0.000000E+00  0.000000E+00  0.000000E+00  0.000000E+00  0.000000E+00  1.207335E-01 -2.319772E-03  1.233869E-03 -1.207050E-01                                                                                                                                                                                                                                                                                                                                                                                                                                                                                              
  8.000000E+02  1.250000E+02 -5.225000E+03  1.192536E-07 -2.302223E-09  1.169618E-09 -1.192256E-07  6.553566E-10 -1.270023E-11  6.452246E-12 -6.552018E-10  0.000000E+00  0.000000E+00  0.000000E+00  0.000000E+00  0.000000E+00  0.000000E+00  0.000000E+00  0.000000E+00  1.207705E-01 -2.414948E-03  1.226894E-03 -1.207402E-01                                                                                                                                                                                                                                                                                                                                                                                                                                                                                              
  9.350000E+02  1.250000E+02 -5.225000E+03  1.196669E-07 -2.509968E-09  1.117560E-09 -1.196353E-07  6.576257E-10 -1.384617E-11  6.165021E-12 -6.574510E-10  0.000000E+00  0.000000E+00  0.000000E+00  0.000000E+00  0.000000E+00  0.000000E+00  0.000000E+00  0.000000E+00  1.211911E-01 -2.632825E-03  1.172272E-03 -1.211568E-01                                                                                                                                                                                                                                                                                                                                                                                                                                                                                              
  1.185000E+03  1.250000E+02 -5.225000E+03  1.201574E-07 -1.996389E-09  7.032729E-10 -1.201388E-07  6.603189E-10 -1.101296E-11  3.879563E-12 -6.602157E-10  0.000000E+00  0.000000E+00  0.000000E+00  0.000000E+00  0.000000E+00  0.000000E+00  0.000000E+00  0.000000E+00  1.216894E-01 -2.094087E-03  7.376904E-04 -1.216692E-01                                                                                                                                                                                                                                                                                                                                                                                                                                                                                              
  1.435000E+03  1.250000E+02 -5.225000E+03  1.194395E-07 -6.596991E-10  3.245351E-10 -1.194372E-07  6.563808E-10 -3.639178E-12  1.790271E-12 -6.563682E-10  0.000000E+00  0.000000E+00  0.000000E+00  0.000000E+00  0.000000E+00  0.000000E+00  0.000000E+00  0.000000E+00  1.209676E-01 -6.919807E-04  3.404158E-04 -1.209652E-01                                                                                                                                                                                                                                                                                                                                                                                                                                                                                              
  1.250000E+02  1.250000E+02 -4.975000E+03  2.364923E-07  1.587705E-09  1.902943E-09 -2.364793E-07  1.284493E-09  8.642801E-12  1.035884E-11 -1.284422E-09  0.000000E+00  0.000000E+00  0.000000E+00  0.000000E+00  0.000000E+00  0.000000E+00  0.000000E+00  0.000000E+00  2.290572E-01  1.587644E-03  1.902870E-03 -2.290438E-01                                                                                                                                                                                                                                                                                                                                                                                                                                                                                              
  3.750000E+02  1.250000E+02 -4.975000E+03  2.325297E-07  2.301521E-09  2.504430E-09 -2.325049E-07  1.262612E-09  1.252848E-11  1.363304E-11 -1.262477E-09  0.000000E+00  0.000000E+00  0.000000E+00  0.000000E+00  0.000000E+00  0.000000E+00  0.000000E+00  0.000000E+00  2.246630E-01  2.301421E-03  2.504295E-03 -2.246373E-01                                                                                                                                                                                                                                                                                                                                                                                                                                                                                              
  6.250000E+02  1.250000E+02 -4.975000E+03  2.296976E-07 -8.057382E-10  2.403145E-09 -2.296836E-07  1.246514E-09 -4.385937E-12  1.308142E-11 -1.246438E-09  0.000000E+00  0.000000E+00  0.000000E+00  0.000000E+00  0.000000E+00  0.000000E+00  0.000000E+00  0.000000E+00  2.208571E-01 -8.055305E-04  2.402804E-03 -2.208425E-01                                                                                                                                                                                                                                                                                                                                                                                                                                                                                              
  7.600000E+02  1.250000E+02 -4.975000E+03  2.315304E-07 -3.114213E-09  2.475418E-09 -2.314963E-07  1.256456E-09 -1.695203E-11  1.347472E-11 -1.256269E-09  0.000000E+00  0.000000E+00  0.000000E+00  0.000000E+00  0.000000E+00  0.000000E+00  0.000000E+00  0.000000E+00  2.226497E-01 -3.113709E-03  2.475017E-03 -2.226142E-01                                                                                                                                                                                                                                                                                                                                                                                                                                                                                              
  7.800000E+02  1.250000E+02 -4.975000E+03  2.318515E-07 -3.244695E-09  2.483247E-09 -2.318155E-07  1.258210E-09 -1.766237E-11  1.351733E-11 -1.258014E-09  0.000000E+00  0.000000E+00  0.000000E+00  0.000000E+00  0.000000E+00  0.000000E+00  0.000000E+00  0.000000E+00  2.229818E-01 -3.244313E-03  2.482845E-03 -2.229444E-01                                                                                                                                                                                                                                                                                                                                                                                                                                                                                              
  8.000000E+02  1.250000E+02 -4.975000E+03  2.311508E-07 -3.408264E-09  2.487118E-09 -2.311123E-07  1.254883E-09 -1.855299E-11  1.353859E-11 -1.254672E-09  0.000000E+00  0.000000E+00  0.000000E+00  0.000000E+00  0.000000E+00  0.000000E+00  0.000000E+00  0.000000E+00  2.229715E-01 -3.408073E-03  2.486932E-03 -2.229316E-01                                                                                                                                                                                                                                                                                                                                                                                                                                                                                              
  9.350000E+02  1.250000E+02 -4.975000E+03  2.330838E-07 -3.409100E-09  2.512347E-09 -2.330454E-07  1.265716E-09 -1.855770E-11  1.367616E-11 -1.265506E-09  0.000000E+00  0.000000E+00  0.000000E+00  0.000000E+00  0.000000E+00  0.000000E+00  0.000000E+00  0.000000E+00  2.253593E-01 -3.409005E-03  2.512250E-03 -2.253195E-01                                                                                                                                                                                                                                                                                                                                                                                                                                                                                              
  1.185000E+03  1.250000E+02 -4.975000E+03  2.333393E-07 -1.661342E-09  1.017504E-09 -2.333312E-07  1.267509E-09 -9.043654E-12  5.538879E-12 -1.267464E-09  0.000000E+00  0.000000E+00  0.000000E+00  0.000000E+00  0.000000E+00  0.000000E+00  0.000000E+00  0.000000E+00  2.261884E-01 -1.661314E-03  1.017487E-03 -2.261800E-01                                                                                                                                                                                                                                                                                                                                                                                                                                                                                              
  1.435000E+03  1.250000E+02 -4.975000E+03  2.289008E-07 -1.047031E-11 -2.128685E-10 -2.289007E-07  1.243623E-09 -5.699626E-14 -1.158773E-12 -1.243623E-09  0.000000E+00  0.000000E+00  0.000000E+00  0.000000E+00  0.000000E+00  0.000000E+00  0.000000E+00  0.000000E+00  2.221406E-01 -1.047028E-05 -2.128666E-04 -2.221405E-01                                                                                                                                                                                                                                                                                                                                                                                                                                                                                              
  1.250000E+02  1.250000E+02 -4.725000E+03  3.547220E-07  5.390364E-09  3.776630E-09 -3.546610E-07  1.873587E-09  2.893728E-11  2.028056E-11 -1.873254E-09  0.000000E+00  0.000000E+00  0.000000E+00  0.000000E+00  0.000000E+00  0.000000E+00  0.000000E+00  0.000000E+00  2.765754E-01  5.117391E-03  3.585377E-03 -2.765048E-01                                                                                                                                                                                                                                                                                                                                                                                                                                                                                              
  3.750000E+02  1.250000E+02 -4.725000E+03  3.499741E-07  1.011317E-08  8.216703E-09 -3.497315E-07  1.835673E-09  5.425275E-11  4.405790E-11 -1.834343E-09  0.000000E+00  0.000000E+00  0.000000E+00  0.000000E+00  0.000000E+00  0.000000E+00  0.000000E+00  0.000000E+00  2.475771E-01  9.582216E-03  7.767866E-03 -2.472696E-01                                                                                                                                                                                                                                                                                                                                                                                                                                                                                              
  6.250000E+02  1.250000E+02 -4.725000E+03  3.372948E-07  2.580949E-10  7.301965E-09 -3.372156E-07  1.761793E-09  1.405134E-12  3.906881E-11 -1.761359E-09  0.000000E+00  0.000000E+00  0.000000E+00  0.000000E+00  0.000000E+00  0.000000E+00  0.000000E+00  0.000000E+00  2.233779E-01  2.762198E-04  6.847558E-03 -2.232728E-01                                                                                                                                                                                                                                                                                                                                                                                                                                                                                              
  7.600000E+02  1.250000E+02 -4.725000E+03  3.359919E-07 -1.006658E-08  8.126840E-09 -3.357427E-07  1.755627E-09 -5.391283E-11  4.348964E-11 -1.754260E-09  0.000000E+00  0.000000E+00  0.000000E+00  0.000000E+00  0.000000E+00  0.000000E+00  0.000000E+00  0.000000E+00  2.233953E-01 -9.445133E-03  7.624257E-03 -2.230653E-01                                                                                                                                                                                                                                                                                                                                                                                                                                                                                              
  7.800000E+02  1.250000E+02 -4.725000E+03  3.351724E-07 -1.246401E-08  8.286913E-09 -3.348380E-07  1.751424E-09 -6.677639E-11  4.435003E-11 -1.749588E-09  0.000000E+00  0.000000E+00  0.000000E+00  0.000000E+00  0.000000E+00  0.000000E+00  0.000000E+00  0.000000E+00  2.227870E-01 -1.172629E-02  7.776044E-03 -2.223422E-01                                                                                                                                                                                                                                                                                                                                                                                                                                                                                              
  8.000000E+02  1.250000E+02 -4.725000E+03  3.537026E-07 -1.334157E-08  8.521098E-09 -3.533482E-07  1.855252E-09 -7.153378E-11  4.563473E-11 -1.853311E-09  0.000000E+00  0.000000E+00  0.000000E+00  0.000000E+00  0.000000E+00  0.000000E+00  0.000000E+00  0.000000E+00  2.517136E-01 -1.260305E-02  8.033850E-03 -2.512695E-01                                                                                                                                                                                                                                                                                                                                                                                                                                                                                              
  9.350000E+02  1.250000E+02 -4.725000E+03  3.556723E-07 -9.024595E-09  9.326683E-09 -3.554354E-07  1.871601E-09 -4.842741E-11  5.002235E-11 -1.870306E-09  0.000000E+00  0.000000E+00  0.000000E+00  0.000000E+00  0.000000E+00  0.000000E+00  0.000000E+00  0.000000E+00  2.644969E-01 -8.552519E-03  8.828441E-03 -2.642111E-01                                                                                                                                                                                                                                                                                                                                                                                                                                                                                              
  1.185000E+03  1.250000E+02 -4.725000E+03  3.464733E-07  8.881632E-10  1.813504E-09 -3.464674E-07  1.841070E-09  4.782766E-12  9.740526E-12 -1.841038E-09  0.000000E+00  0.000000E+00  0.000000E+00  0.000000E+00  0.000000E+00  0.000000E+00  0.000000E+00  0.000000E+00  2.900992E-01  8.442161E-04  1.723771E-03 -2.900928E-01                                                                                                                                                                                                                                                                                                                                                                                                                                                                                              