Title="TOUGHREACT V3.30-OMP flowvector.tec: Liq & Gas Fluxes (kg/s/m^2), Pore Velocities (m/s), & Heat Fluxes (J/s/m2)"                                                                                                                                                                                                                                                                                                                                                                                                                                                                                                                                                                                                                                                                                                         
Variables= "X(m)"     "Y(m)"      "Z(m)"     "FluxLiq"   "FluxLiq_X"   "FluxLiq_Y"   "FluxLiq_Z"   "PorVelLiq"  "PorVelLiqX"  "PorVelLiqY"  "PorVelLiqZ"     "FluxGas"   "FluxGas_X"   "FluxGas_Y"   "FluxGas_Z"   "PorVelGas"  "PorVelGasX"  "PorVelGasY"  "PorVelGasZ"    "HeatFlux"  "HeatFlux_X"  "HeatFlux_Y"  "HeatFlux_Z"                                                                                                                                                                                                                                                                                                                                                                                                                                                                                                
Zone T= "1.00000000E+11 sec" I=     9 J=    10 K=    23 F=Point
  1.250000E+02  1.250000E+02 -5.425000E+03  4.075355E-09 -2.061363E-10 -2.822797E-10  4.060338E-09  2.276050E-11 -1.173161E-12 -1.606506E-12  2.267340E-11  0.000000E+00  0.000000E+00  0.000000E+00  0.000000E+00  0.000000E+00  0.000000E+00  0.000000E+00  0.000000E+00  4.807799E-03 -2.431861E-04 -3.330136E-04  4.790082E-03                                                                                                                                                                                                                                                                                                                                                                                                                                                                                              
  3.750000E+02  1.250000E+02 -5.425000E+03  3.849374E-09 -2.073352E-10 -3.113455E-10  3.831156E-09  2.149927E-11 -1.179984E-12 -1.771929E-12  2.139361E-11  0.000000E+00  0.000000E+00  0.000000E+00  0.000000E+00  0.000000E+00  0.000000E+00  0.000000E+00  0.000000E+00  4.541239E-03 -2.446005E-04 -3.673076E-04  4.519746E-03                                                                                                                                                                                                                                                                                                                                                                                                                                                                                              
  6.250000E+02  1.250000E+02 -5.425000E+03  3.664655E-09  6.152246E-10 -3.340863E-10  3.597163E-09  2.047834E-11  3.501374E-12 -1.901359E-12  2.008700E-11  0.000000E+00  0.000000E+00  0.000000E+00  0.000000E+00  0.000000E+00  0.000000E+00  0.000000E+00  0.000000E+00  4.323359E-03  7.258082E-04 -3.941410E-04  4.243735E-03                                                                                                                                                                                                                                                                                                                                                                                                                                                                                              
  7.600000E+02  1.250000E+02 -5.425000E+03  3.918572E-09  1.270232E-09 -3.406813E-10  3.691295E-09  2.192949E-11  7.229165E-12 -1.938892E-12  2.061267E-11  0.000000E+00  0.000000E+00  0.000000E+00  0.000000E+00  0.000000E+00  0.000000E+00  0.000000E+00  0.000000E+00  4.622906E-03  1.498548E-03 -4.019198E-04  4.354775E-03                                                                                                                                                                                                                                                                                                                                                                                                                                                                                              
  7.800000E+02  1.250000E+02 -5.425000E+03  3.958093E-09  1.342907E-09 -3.415266E-10  3.707622E-09  2.215489E-11  7.642772E-12 -1.943703E-12  2.070385E-11  0.000000E+00  0.000000E+00  0.000000E+00  0.000000E+00  0.000000E+00  0.000000E+00  0.000000E+00  0.000000E+00  4.669527E-03  1.584283E-03 -4.029167E-04  4.374035E-03                                                                                                                                                                                                                                                                                                                                                                                                                                                                                              
  8.000000E+02  1.250000E+02 -5.425000E+03  3.999684E-09  1.410973E-09 -3.422300E-10  3.726863E-09  2.239168E-11  8.030147E-12 -1.947706E-12  2.081130E-11  0.000000E+00  0.000000E+00  0.000000E+00  0.000000E+00  0.000000E+00  0.000000E+00  0.000000E+00  0.000000E+00  4.718592E-03  1.664583E-03 -4.037462E-04  4.396733E-03                                                                                                                                                                                                                                                                                                                                                                                                                                                                                              
  9.350000E+02  1.250000E+02 -5.425000E+03  4.207223E-09  1.629637E-09 -3.459187E-10  3.863333E-09  2.356493E-11  9.274610E-12 -1.968698E-12  2.157341E-11  0.000000E+00  0.000000E+00  0.000000E+00  0.000000E+00  0.000000E+00  0.000000E+00  0.000000E+00  0.000000E+00  4.963416E-03  1.922546E-03 -4.080956E-04  4.557716E-03                                                                                                                                                                                                                                                                                                                                                                                                                                                                                              
  1.185000E+03  1.250000E+02 -5.425000E+03  4.421803E-09  1.518054E-09 -3.242894E-10  4.140373E-09  2.475095E-11  8.639566E-12 -1.845601E-12  2.312058E-11  0.000000E+00  0.000000E+00  0.000000E+00  0.000000E+00  0.000000E+00  0.000000E+00  0.000000E+00  0.000000E+00  5.216535E-03  1.790899E-03 -3.825745E-04  4.884522E-03                                                                                                                                                                                                                                                                                                                                                                                                                                                                                              
  1.435000E+03  1.250000E+02 -5.425000E+03  4.361445E-09  6.102909E-10 -2.919237E-10  4.308658E-09  2.436657E-11  3.473299E-12 -1.661402E-12  2.406046E-11  0.000000E+00  0.000000E+00  0.000000E+00  0.000000E+00  0.000000E+00  0.000000E+00  0.000000E+00  0.000000E+00  5.145321E-03  7.199785E-04 -3.443904E-04  5.083046E-03                                                                                                                                                                                                                                                                                                                                                                                                                                                                                              
  1.250000E+02  1.250000E+02 -5.225000E+03  8.881055E-09 -3.645205E-10 -3.400095E-10  8.867055E-09  4.892894E-11 -1.997378E-12 -1.863072E-12  4.885264E-11  0.000000E+00  0.000000E+00  0.000000E+00  0.000000E+00  0.000000E+00  0.000000E+00  0.000000E+00  0.000000E+00  9.853244E-03 -3.829096E-04 -3.571630E-04  9.839320E-03                                                                                                                                                                                                                                                                                                                                                                                                                                                                                              
  3.750000E+02  1.250000E+02 -5.225000E+03  7.951793E-09 -5.426961E-10 -4.074793E-10  7.922781E-09  4.383587E-11 -2.973684E-12 -2.232765E-12  4.367786E-11  0.000000E+00  0.000000E+00  0.000000E+00  0.000000E+00  0.000000E+00  0.000000E+00  0.000000E+00  0.000000E+00  8.846552E-03 -5.700737E-04 -4.280363E-04  8.817783E-03                                                                                                                                                                                                                                                                                                                                                                                                                                                                                              
  6.250000E+02  1.250000E+02 -5.225000E+03  6.831853E-09  5.303313E-10 -4.518335E-10  6.796235E-09  3.770341E-11  2.905932E-12 -2.475805E-12  3.750964E-11  0.000000E+00  0.000000E+00  0.000000E+00  0.000000E+00  0.000000E+00  0.000000E+00  0.000000E+00  0.000000E+00  7.639331E-03  5.570853E-04 -4.746344E-04  7.604193E-03                                                                                                                                                                                                                                                                                                                                                                                                                                                                                              
  7.600000E+02  1.250000E+02 -5.225000E+03  7.332401E-09  1.474003E-09 -4.599548E-10  7.167975E-09  4.044218E-11  8.076751E-12 -2.520309E-12  3.954724E-11  0.000000E+00  0.000000E+00  0.000000E+00  0.000000E+00  0.000000E+00  0.000000E+00  0.000000E+00  0.000000E+00  8.169500E-03  1.548366E-03 -4.831637E-04  8.006862E-03                                                                                                                                                                                                                                                                                                                                                                                                                                                                                              
  7.800000E+02  1.250000E+02 -5.225000E+03  7.426917E-09  1.584820E-09 -4.608422E-10  7.241206E-09  4.095922E-11  8.683979E-12 -2.525172E-12  3.994834E-11  0.000000E+00  0.000000E+00  0.000000E+00  0.000000E+00  0.000000E+00  0.000000E+00  0.000000E+00  0.000000E+00  8.269680E-03  1.664778E-03 -4.840956E-04  8.085900E-03                                                                                                                                                                                                                                                                                                                                                                                                                                                                                              
  8.000000E+02  1.250000E+02 -5.225000E+03  7.589716E-09  1.684024E-09 -4.614216E-10  7.386132E-09  4.184907E-11  9.227578E-12 -2.528348E-12  4.074069E-11  0.000000E+00  0.000000E+00  0.000000E+00  0.000000E+00  0.000000E+00  0.000000E+00  0.000000E+00  0.000000E+00  8.442292E-03  1.768990E-03 -4.847041E-04  8.240632E-03                                                                                                                                                                                                                                                                                                                                                                                                                                                                                              
  9.350000E+02  1.250000E+02 -5.225000E+03  8.278308E-09  1.916754E-09 -4.611351E-10  8.040136E-09  4.561927E-11  1.050287E-11 -2.526784E-12  4.432181E-11  0.000000E+00  0.000000E+00  0.000000E+00  0.000000E+00  0.000000E+00  0.000000E+00  0.000000E+00  0.000000E+00  9.181885E-03  2.013473E-03 -4.844023E-04  8.945294E-03                                                                                                                                                                                                                                                                                                                                                                                                                                                                                              
  1.185000E+03  1.250000E+02 -5.225000E+03  9.265082E-09  1.741397E-09 -4.047483E-10  9.090955E-09  5.103304E-11  9.542071E-12 -2.217834E-12  5.008394E-11  0.000000E+00  0.000000E+00  0.000000E+00  0.000000E+00  0.000000E+00  0.000000E+00  0.000000E+00  0.000000E+00  1.025845E-02  1.829294E-03 -4.251764E-04  1.008508E-02                                                                                                                                                                                                                                                                                                                                                                                                                                                                                              
  1.435000E+03  1.250000E+02 -5.225000E+03  9.711914E-09  6.893432E-10 -3.305181E-10  9.681778E-09  5.349004E-11  3.777317E-12 -1.811107E-12  5.332575E-11  0.000000E+00  0.000000E+00  0.000000E+00  0.000000E+00  0.000000E+00  0.000000E+00  0.000000E+00  0.000000E+00  1.075766E-02  7.241507E-04 -3.472094E-04  1.072764E-02                                                                                                                                                                                                                                                                                                                                                                                                                                                                                              
  1.250000E+02  1.250000E+02 -4.975000E+03  1.130571E-08 -1.008300E-09 -6.061059E-10  1.124433E-08  6.111287E-11 -5.453406E-12 -3.278157E-12  6.078072E-11  0.000000E+00  0.000000E+00  0.000000E+00  0.000000E+00  0.000000E+00  0.000000E+00  0.000000E+00  0.000000E+00  1.155486E-02 -1.009437E-03 -6.068200E-04  1.149468E-02                                                                                                                                                                                                                                                                                                                                                                                                                                                                                              
  3.750000E+02  1.250000E+02 -4.975000E+03  9.299513E-09 -1.966757E-09 -8.977286E-10  9.044716E-09  5.026712E-11 -1.063702E-11 -4.855235E-12  4.888828E-11  0.000000E+00  0.000000E+00  0.000000E+00  0.000000E+00  0.000000E+00  0.000000E+00  0.000000E+00  0.000000E+00  9.506334E-03 -1.968786E-03 -8.986449E-04  9.256711E-03                                                                                                                                                                                                                                                                                                                                                                                                                                                                                              
  6.250000E+02  1.250000E+02 -4.975000E+03  5.409156E-09  2.245906E-10 -1.037374E-09  5.303996E-09  2.928355E-11  1.214474E-12 -5.610138E-12  2.871546E-11  0.000000E+00  0.000000E+00  0.000000E+00  0.000000E+00  0.000000E+00  0.000000E+00  0.000000E+00  0.000000E+00  5.569575E-03  2.247995E-04 -1.038187E-03  5.467339E-03                                                                                                                                                                                                                                                                                                                                                                                                                                                                                              
  7.600000E+02  1.250000E+02 -4.975000E+03  5.990154E-09  2.584544E-09 -1.064197E-09  5.298071E-09  3.244311E-11  1.397760E-11 -5.755196E-12  2.870645E-11  0.000000E+00  0.000000E+00  0.000000E+00  0.000000E+00  0.000000E+00  0.000000E+00  0.000000E+00  0.000000E+00  6.148499E-03  2.586947E-03 -1.065015E-03  5.475170E-03                                                                                                                                                                                                                                                                                                                                                                                                                                                                                              
  7.800000E+02  1.250000E+02 -4.975000E+03  6.245651E-09  3.026203E-09 -1.069446E-09  5.357848E-09  3.382550E-11  1.636635E-11 -5.783606E-12  2.903200E-11  0.000000E+00  0.000000E+00  0.000000E+00  0.000000E+00  0.000000E+00  0.000000E+00  0.000000E+00  0.000000E+00  6.402195E-03  3.029024E-03 -1.070290E-03  5.537834E-03                                                                                                                                                                                                                                                                                                                                                                                                                                                                                              
  8.000000E+02  1.250000E+02 -4.975000E+03  8.391661E-09  3.311144E-09 -1.076753E-09  7.635241E-09  4.536999E-11  1.790784E-11 -5.823264E-12  4.127754E-11  0.000000E+00  0.000000E+00  0.000000E+00  0.000000E+00  0.000000E+00  0.000000E+00  0.000000E+00  0.000000E+00  8.565283E-03  3.314470E-03 -1.077642E-03  7.824132E-03                                                                                                                                                                                                                                                                                                                                                                                                                                                                                              
  9.350000E+02  1.250000E+02 -4.975000E+03  1.005919E-08  3.395664E-09 -1.064017E-09  9.408753E-09  5.437708E-11  1.836556E-11 -5.754652E-12  5.085722E-11  0.000000E+00  0.000000E+00  0.000000E+00  0.000000E+00  0.000000E+00  0.000000E+00  0.000000E+00  0.000000E+00  1.026375E-02  3.399479E-03 -1.065132E-03  9.625674E-03                                                                                                                                                                                                                                                                                                                                                                                                                                                                                              
  1.185000E+03  1.250000E+02 -4.975000E+03  1.177745E-08  2.738774E-09 -8.268157E-10  1.142471E-08  6.367982E-11  1.481320E-11 -4.471966E-12  6.177128E-11  0.000000E+00  0.000000E+00  0.000000E+00  0.000000E+00  0.000000E+00  0.000000E+00  0.000000E+00  0.000000E+00  1.202910E-02  2.742121E-03 -8.278126E-04  1.168310E-02                                                                                                                                                                                                                                                                                                                                                                                                                                                                                              
  1.435000E+03  1.250000E+02 -4.975000E+03  1.235325E-08  1.029548E-09 -5.053471E-10  1.229990E-08  6.680762E-11  5.568633E-12 -2.733342E-12  6.651900E-11  0.000000E+00  0.000000E+00  0.000000E+00  0.000000E+00  0.000000E+00  0.000000E+00  0.000000E+00  0.000000E+00  1.263333E-02  1.030887E-03 -5.060188E-04  1.258103E-02                                                                                                                                                                                                                                                                                                                                                                                                                                                                                              
  1.250000E+02  1.250000E+02 -4.725000E+03  1.370245E-08 -4.972600E-10 -2.943047E-10  1.369026E-08  7.120057E-11 -2.652284E-12 -1.570304E-12  7.113382E-11  0.000000E+00  0.000000E+00  0.000000E+00  0.000000E+00  0.000000E+00  0.000000E+00  0.000000E+00  0.000000E+00  1.333879E-02 -4.693686E-04 -2.786000E-04  1.332762E-02                                                                                                                                                                                                                                                                                                                                                                                                                                                                                              
  3.750000E+02  1.250000E+02 -4.725000E+03  1.030678E-08 -9.237111E-10 -4.031336E-10  1.025739E-08  5.357497E-11 -4.922940E-12 -2.147181E-12  5.330508E-11  0.000000E+00  0.000000E+00  0.000000E+00  0.000000E+00  0.000000E+00  0.000000E+00  0.000000E+00  0.000000E+00  1.001035E-02 -8.682793E-04 -3.781158E-04  9.965453E-03                                                                                                                                                                                                                                                                                                                                                                                                                                                                                              
  6.250000E+02  1.250000E+02 -4.725000E+03  3.551144E-09  1.128203E-10 -2.861410E-10  3.537798E-09  1.857022E-11  5.975397E-13 -1.520411E-12  1.849822E-11  0.000000E+00  0.000000E+00  0.000000E+00  0.000000E+00  0.000000E+00  0.000000E+00  0.000000E+00  0.000000E+00  3.459038E-03  1.055343E-04 -2.654859E-04  3.447220E-03                                                                                                                                                                                                                                                                                                                                                                                                                                                                                              
  7.600000E+02  1.250000E+02 -4.725000E+03  3.029066E-09  1.177527E-09 -3.565288E-10  2.767951E-09  1.593706E-11  6.262988E-12 -1.894664E-12  1.453187E-11  0.000000E+00  0.000000E+00  0.000000E+00  0.000000E+00  0.000000E+00  0.000000E+00  0.000000E+00  0.000000E+00  2.942764E-03  1.101571E-03 -3.311113E-04  2.708647E-03                                                                                                                                                                                                                                                                                                                                                                                                                                                                                              
  7.800000E+02  1.250000E+02 -4.725000E+03  3.097199E-09  1.378688E-09 -3.712096E-10  2.748466E-09  1.631205E-11  7.336041E-12 -1.972846E-12  1.443514E-11  0.000000E+00  0.000000E+00  0.000000E+00  0.000000E+00  0.000000E+00  0.000000E+00  0.000000E+00  0.000000E+00  3.003856E-03  1.289959E-03 -3.449336E-04  2.690758E-03                                                                                                                                                                                                                                                                                                                                                                                                                                                                                              
  8.000000E+02  1.250000E+02 -4.725000E+03  8.179298E-09  1.506728E-09 -3.900037E-10  8.029855E-09  4.256364E-11  8.025421E-12 -2.074539E-12  4.174868E-11  0.000000E+00  0.000000E+00  0.000000E+00  0.000000E+00  0.000000E+00  0.000000E+00  0.000000E+00  0.000000E+00  7.931726E-03  1.414157E-03 -3.628093E-04  7.796205E-03                                                                                                                                                                                                                                                                                                                                                                                                                                                                                              
  9.350000E+02  1.250000E+02 -4.725000E+03  1.105225E-08  1.588985E-09 -4.991392E-10  1.092603E-08  5.746948E-11  8.474429E-12 -2.659319E-12  5.677898E-11  0.000000E+00  0.000000E+00  0.000000E+00  0.000000E+00  0.000000E+00  0.000000E+00  0.000000E+00  0.000000E+00  1.073846E-02  1.499336E-03 -4.683980E-04  1.062295E-02                                                                                                                                                                                                                                                                                                                                                                                                                                                                                              
  1.185000E+03  1.250000E+02 -4.725000E+03  1.377068E-08  1.357500E-09 -4.380926E-10  1.369660E-08  7.160538E-11  7.247061E-12 -2.338058E-12  7.119932E-11  0.000000E+00  0.000000E+00  0.000000E+00  0.000000E+00  0.000000E+00  0.000000E+00  0.000000E+00  0.000000E+00  1.341921E-02  1.286605E-03 -4.145758E-04  1.335096E-02                                                                                                                                                                                                                                                                                                                                                                                                                                                                                              