Title="TOUGHREACT V3.30-OMP flowvector.tec: Liq & Gas Fluxes (kg/s/m^2), Pore Velocities (m/s), & Heat Fluxes (J/s/m2)"                                                                                                                                                                                                                                                                                                                                                                                                                                                                                                                                                                                                                                                                                                         
Variables= "X(m)"     "Y(m)"      "Z(m)"     "FluxLiq"   "FluxLiq_X"   "FluxLiq_Y"   "FluxLiq_Z"   "PorVelLiq"  "PorVelLiqX"  "PorVelLiqY"  "PorVelLiqZ"     "FluxGas"   "FluxGas_X"   "FluxGas_Y"   "FluxGas_Z"   "PorVelGas"  "PorVelGasX"  "PorVelGasY"  "PorVelGasZ"    "HeatFlux"  "HeatFlux_X"  "HeatFlux_Y"  "HeatFlux_Z"                                                                                                                                                                                                                                                                                                                                                                                                                                                                                                
Zone T= "6.33000000E+10 sec" I=     9 J=    10 K=    23 F=Point
  1.250000E+02  1.250000E+02 -5.425000E+03  3.961474E-09 -1.915791E-10 -2.741605E-10  3.947329E-09  2.201269E-11 -1.079111E-12 -1.544267E-12  2.193192E-11  0.000000E+00  0.000000E+00  0.000000E+00  0.000000E+00  0.000000E+00  0.000000E+00  0.000000E+00  0.000000E+00  4.541357E-03 -2.196244E-04 -3.142934E-04  4.525142E-03                                                                                                                                                                                                                                                                                                                                                                                                                                                                                              
  3.750000E+02  1.250000E+02 -5.425000E+03  3.743116E-09 -1.790872E-10 -3.019041E-10  3.726620E-09  2.079985E-11 -1.008747E-12 -1.700543E-12  2.070566E-11  0.000000E+00  0.000000E+00  0.000000E+00  0.000000E+00  0.000000E+00  0.000000E+00  0.000000E+00  0.000000E+00  4.291070E-03 -2.053038E-04 -3.461023E-04  4.272159E-03                                                                                                                                                                                                                                                                                                                                                                                                                                                                                              
  6.250000E+02  1.250000E+02 -5.425000E+03  3.573192E-09  6.229542E-10 -3.240573E-10  3.503515E-09  1.986389E-11  3.508939E-12 -1.825333E-12  1.946612E-11  0.000000E+00  0.000000E+00  0.000000E+00  0.000000E+00  0.000000E+00  0.000000E+00  0.000000E+00  0.000000E+00  4.096309E-03  7.141550E-04 -3.715037E-04  4.016431E-03                                                                                                                                                                                                                                                                                                                                                                                                                                                                                              
  7.600000E+02  1.250000E+02 -5.425000E+03  3.823526E-09  1.257129E-09 -3.322366E-10  3.595635E-09  2.127823E-11  7.081084E-12 -1.871405E-12  1.997796E-11  0.000000E+00  0.000000E+00  0.000000E+00  0.000000E+00  0.000000E+00  0.000000E+00  0.000000E+00  0.000000E+00  4.383281E-03  1.441172E-03 -3.808788E-04  4.122027E-03                                                                                                                                                                                                                                                                                                                                                                                                                                                                                              
  7.800000E+02  1.250000E+02 -5.425000E+03  3.862230E-09  1.327505E-09 -3.333351E-10  3.611570E-09  2.149658E-11  7.477492E-12 -1.877592E-12  2.006650E-11  0.000000E+00  0.000000E+00  0.000000E+00  0.000000E+00  0.000000E+00  0.000000E+00  0.000000E+00  0.000000E+00  4.427650E-03  1.521848E-03 -3.821378E-04  4.140294E-03                                                                                                                                                                                                                                                                                                                                                                                                                                                                                              
  8.000000E+02  1.250000E+02 -5.425000E+03  3.902899E-09  1.393410E-09 -3.343104E-10  3.630326E-09  2.172571E-11  7.848718E-12 -1.883085E-12  2.017072E-11  0.000000E+00  0.000000E+00  0.000000E+00  0.000000E+00  0.000000E+00  0.000000E+00  0.000000E+00  0.000000E+00  4.474270E-03  1.597401E-03 -3.832556E-04  4.161793E-03                                                                                                                                                                                                                                                                                                                                                                                                                                                                                              
  9.350000E+02  1.250000E+02 -5.425000E+03  4.105691E-09  1.605903E-09 -3.399519E-10  3.763270E-09  2.286248E-11  9.045632E-12 -1.914861E-12  2.090939E-11  0.000000E+00  0.000000E+00  0.000000E+00  0.000000E+00  0.000000E+00  0.000000E+00  0.000000E+00  0.000000E+00  4.706733E-03  1.840998E-03 -3.897206E-04  4.314184E-03                                                                                                                                                                                                                                                                                                                                                                                                                                                                                              
  1.185000E+03  1.250000E+02 -5.425000E+03  4.316731E-09  1.494786E-09 -3.231554E-10  4.036751E-09  2.402633E-11  8.419739E-12 -1.820251E-12  2.242899E-11  0.000000E+00  0.000000E+00  0.000000E+00  0.000000E+00  0.000000E+00  0.000000E+00  0.000000E+00  0.000000E+00  4.948640E-03  1.713606E-03 -3.704612E-04  4.627672E-03                                                                                                                                                                                                                                                                                                                                                                                                                                                                                              
  1.435000E+03  1.250000E+02 -5.425000E+03  4.258430E-09  6.014549E-10 -2.947450E-10  4.205426E-09  2.366891E-11  3.387842E-12 -1.660224E-12  2.336629E-11  0.000000E+00  0.000000E+00  0.000000E+00  0.000000E+00  0.000000E+00  0.000000E+00  0.000000E+00  0.000000E+00  4.881796E-03  6.894992E-04 -3.378906E-04  4.821033E-03                                                                                                                                                                                                                                                                                                                                                                                                                                                                                              
  1.250000E+02  1.250000E+02 -5.225000E+03  8.626975E-09 -3.541761E-10 -3.365989E-10  8.613127E-09  4.741758E-11 -1.940538E-12 -1.844231E-12  4.734195E-11  0.000000E+00  0.000000E+00  0.000000E+00  0.000000E+00  0.000000E+00  0.000000E+00  0.000000E+00  0.000000E+00  9.439296E-03 -3.719708E-04 -3.535090E-04  9.425337E-03                                                                                                                                                                                                                                                                                                                                                                                                                                                                                              
  3.750000E+02  1.250000E+02 -5.225000E+03  7.719791E-09 -5.184916E-10 -4.026156E-10  7.691830E-09  4.245268E-11 -2.840828E-12 -2.205941E-12  4.230004E-11  0.000000E+00  0.000000E+00  0.000000E+00  0.000000E+00  0.000000E+00  0.000000E+00  0.000000E+00  0.000000E+00  8.464714E-03 -5.445440E-04 -4.228480E-04  8.436590E-03                                                                                                                                                                                                                                                                                                                                                                                                                                                                                              
  6.250000E+02  1.250000E+02 -5.225000E+03  6.636046E-09  5.492190E-10 -4.451656E-10  6.598279E-09  3.652567E-11  3.009195E-12 -2.439085E-12  3.631969E-11  0.000000E+00  0.000000E+00  0.000000E+00  0.000000E+00  0.000000E+00  0.000000E+00  0.000000E+00  0.000000E+00  7.304560E-03  5.768201E-04 -4.675485E-04  7.266724E-03                                                                                                                                                                                                                                                                                                                                                                                                                                                                                              
  7.600000E+02  1.250000E+02 -5.225000E+03  7.137090E-09  1.483539E-09 -4.562273E-10  6.966278E-09  3.926588E-11  8.128376E-12 -2.499693E-12  3.833393E-11  0.000000E+00  0.000000E+00  0.000000E+00  0.000000E+00  0.000000E+00  0.000000E+00  0.000000E+00  0.000000E+00  7.833546E-03  1.558095E-03 -4.791624E-04  7.662061E-03                                                                                                                                                                                                                                                                                                                                                                                                                                                                                              
  7.800000E+02  1.250000E+02 -5.225000E+03  7.231211E-09  1.593361E-09 -4.575937E-10  7.038623E-09  3.978051E-11  8.730102E-12 -2.507179E-12  3.872968E-11  0.000000E+00  0.000000E+00  0.000000E+00  0.000000E+00  0.000000E+00  0.000000E+00  0.000000E+00  0.000000E+00  7.932991E-03  1.673435E-03 -4.805969E-04  7.739573E-03                                                                                                                                                                                                                                                                                                                                                                                                                                                                                              
  8.000000E+02  1.250000E+02 -5.225000E+03  7.393160E-09  1.691663E-09 -4.586828E-10  7.182388E-09  4.066527E-11  9.268707E-12 -2.513147E-12  3.951505E-11  0.000000E+00  0.000000E+00  0.000000E+00  0.000000E+00  0.000000E+00  0.000000E+00  0.000000E+00  0.000000E+00  8.104204E-03  1.776679E-03 -4.817402E-04  7.892368E-03                                                                                                                                                                                                                                                                                                                                                                                                                                                                                              
  9.350000E+02  1.250000E+02 -5.225000E+03  8.073022E-09  1.924496E-09 -4.620072E-10  7.826656E-09  4.438379E-11  1.054444E-11 -2.531363E-12  4.303868E-11  0.000000E+00  0.000000E+00  0.000000E+00  0.000000E+00  0.000000E+00  0.000000E+00  0.000000E+00  0.000000E+00  8.829934E-03  2.021215E-03 -4.852275E-04  8.581782E-03                                                                                                                                                                                                                                                                                                                                                                                                                                                                                              
  1.185000E+03  1.250000E+02 -5.225000E+03  9.056155E-09  1.750692E-09 -4.124263E-10  8.875749E-09  4.976826E-11  9.592199E-12 -2.259718E-12  4.878282E-11  0.000000E+00  0.000000E+00  0.000000E+00  0.000000E+00  0.000000E+00  0.000000E+00  0.000000E+00  0.000000E+00  9.891980E-03  1.838686E-03 -4.331538E-04  9.709937E-03                                                                                                                                                                                                                                                                                                                                                                                                                                                                                              
  1.435000E+03  1.250000E+02 -5.225000E+03  9.509643E-09  6.945022E-10 -3.432421E-10  9.478035E-09  5.225479E-11  3.805260E-12 -1.880666E-12  5.208211E-11  0.000000E+00  0.000000E+00  0.000000E+00  0.000000E+00  0.000000E+00  0.000000E+00  0.000000E+00  0.000000E+00  1.039073E-02  7.294163E-04 -3.604984E-04  1.035882E-02                                                                                                                                                                                                                                                                                                                                                                                                                                                                                              
  1.250000E+02  1.250000E+02 -4.975000E+03  1.100703E-08 -9.960050E-10 -6.023131E-10  1.094531E-08  5.949379E-11 -5.386638E-12 -3.257478E-12  5.915982E-11  0.000000E+00  0.000000E+00  0.000000E+00  0.000000E+00  0.000000E+00  0.000000E+00  0.000000E+00  0.000000E+00  1.124717E-02 -9.970356E-04 -6.029610E-04  1.118666E-02                                                                                                                                                                                                                                                                                                                                                                                                                                                                                              
  3.750000E+02  1.250000E+02 -4.975000E+03  9.027475E-09 -1.933036E-09 -8.892032E-10  8.773140E-09  4.879371E-11 -1.045415E-11 -4.808908E-12  4.741741E-11  0.000000E+00  0.000000E+00  0.000000E+00  0.000000E+00  0.000000E+00  0.000000E+00  0.000000E+00  0.000000E+00  9.226509E-03 -1.934871E-03 -8.900399E-04  8.977336E-03                                                                                                                                                                                                                                                                                                                                                                                                                                                                                              
  6.250000E+02  1.250000E+02 -4.975000E+03  5.189433E-09  2.566124E-10 -1.015001E-09  5.082730E-09  2.809487E-11  1.387607E-12 -5.488929E-12  2.751850E-11  0.000000E+00  0.000000E+00  0.000000E+00  0.000000E+00  0.000000E+00  0.000000E+00  0.000000E+00  0.000000E+00  5.343680E-03  2.568326E-04 -1.015742E-03  5.239964E-03                                                                                                                                                                                                                                                                                                                                                                                                                                                                                              
  7.600000E+02  1.250000E+02 -4.975000E+03  5.810505E-09  2.604572E-09 -1.051351E-09  5.086534E-09  3.146991E-11  1.408530E-11 -5.685494E-12  2.756148E-11  0.000000E+00  0.000000E+00  0.000000E+00  0.000000E+00  0.000000E+00  0.000000E+00  0.000000E+00  0.000000E+00  5.961744E-03  2.606796E-03 -1.052099E-03  5.257385E-03                                                                                                                                                                                                                                                                                                                                                                                                                                                                                              
  7.800000E+02  1.250000E+02 -4.975000E+03  6.072992E-09  3.043865E-09 -1.058281E-09  5.147442E-09  3.288985E-11  1.646114E-11 -5.722988E-12  2.789302E-11  0.000000E+00  0.000000E+00  0.000000E+00  0.000000E+00  0.000000E+00  0.000000E+00  0.000000E+00  0.000000E+00  6.222301E-03  3.046460E-03 -1.059050E-03  5.321139E-03                                                                                                                                                                                                                                                                                                                                                                                                                                                                                              
  8.000000E+02  1.250000E+02 -4.975000E+03  8.196162E-09  3.327321E-09 -1.067516E-09  7.413934E-09  4.431087E-11  1.799452E-11 -5.773067E-12  4.007895E-11  0.000000E+00  0.000000E+00  0.000000E+00  0.000000E+00  0.000000E+00  0.000000E+00  0.000000E+00  0.000000E+00  8.362787E-03  3.330395E-03 -1.068328E-03  7.596272E-03                                                                                                                                                                                                                                                                                                                                                                                                                                                                                              
  9.350000E+02  1.250000E+02 -4.975000E+03  9.850309E-09  3.422879E-09 -1.069115E-09  9.174393E-09  5.324454E-11  1.851187E-11 -5.781958E-12  4.958690E-11  0.000000E+00  0.000000E+00  0.000000E+00  0.000000E+00  0.000000E+00  0.000000E+00  0.000000E+00  0.000000E+00  1.004726E-02  3.426423E-03 -1.070151E-03  9.384124E-03                                                                                                                                                                                                                                                                                                                                                                                                                                                                                              
  1.185000E+03  1.250000E+02 -4.975000E+03  1.159070E-08  2.781555E-09 -8.507979E-10  1.121978E-08  6.266477E-11  1.504381E-11 -4.601442E-12  6.065793E-11  0.000000E+00  0.000000E+00  0.000000E+00  0.000000E+00  0.000000E+00  0.000000E+00  0.000000E+00  0.000000E+00  1.183449E-02  2.784673E-03 -8.517375E-04  1.147062E-02                                                                                                                                                                                                                                                                                                                                                                                                                                                                                              
  1.435000E+03  1.250000E+02 -4.975000E+03  1.221699E-08  1.053061E-09 -5.439898E-10  1.215936E-08  6.606382E-11  5.695503E-12 -2.942193E-12  6.575206E-11  0.000000E+00  0.000000E+00  0.000000E+00  0.000000E+00  0.000000E+00  0.000000E+00  0.000000E+00  0.000000E+00  1.248979E-02  1.054312E-03 -5.446489E-04  1.243329E-02                                                                                                                                                                                                                                                                                                                                                                                                                                                                                              
  1.250000E+02  1.250000E+02 -4.725000E+03  1.337706E-08 -4.897750E-10 -2.917019E-10  1.336491E-08  6.950456E-11 -2.612206E-12 -1.556321E-12  6.943801E-11  0.000000E+00  0.000000E+00  0.000000E+00  0.000000E+00  0.000000E+00  0.000000E+00  0.000000E+00  0.000000E+00  1.301997E-02 -4.622405E-04 -2.760937E-04  1.300883E-02                                                                                                                                                                                                                                                                                                                                                                                                                                                                                              
  3.750000E+02  1.250000E+02 -4.725000E+03  1.000570E-08 -9.021033E-10 -3.987937E-10  9.956969E-09  5.200774E-11 -4.807563E-12 -2.123959E-12  5.174148E-11  0.000000E+00  0.000000E+00  0.000000E+00  0.000000E+00  0.000000E+00  0.000000E+00  0.000000E+00  0.000000E+00  9.716767E-03 -8.479155E-04 -3.740106E-04  9.672472E-03                                                                                                                                                                                                                                                                                                                                                                                                                                                                                              
  6.250000E+02  1.250000E+02 -4.725000E+03  3.299481E-09  1.555017E-10 -2.798399E-10  3.283913E-09  1.726550E-11  8.246233E-13 -1.486927E-12  1.718158E-11  0.000000E+00  0.000000E+00  0.000000E+00  0.000000E+00  0.000000E+00  0.000000E+00  0.000000E+00  0.000000E+00  3.215654E-03  1.454499E-04 -2.597025E-04  3.201847E-03                                                                                                                                                                                                                                                                                                                                                                                                                                                                                              
  7.600000E+02  1.250000E+02 -4.725000E+03  2.812540E-09  1.239970E-09 -3.635724E-10  2.498134E-09  1.482770E-11  6.594869E-12 -1.932092E-12  1.313908E-11  0.000000E+00  0.000000E+00  0.000000E+00  0.000000E+00  0.000000E+00  0.000000E+00  0.000000E+00  0.000000E+00  2.730894E-03  1.159917E-03 -3.377319E-04  2.449145E-03                                                                                                                                                                                                                                                                                                                                                                                                                                                                                              
  7.800000E+02  1.250000E+02 -4.725000E+03  2.894754E-09  1.452546E-09 -3.807612E-10  2.474819E-09  1.527885E-11  7.728754E-12 -2.023601E-12  1.302362E-11  0.000000E+00  0.000000E+00  0.000000E+00  0.000000E+00  0.000000E+00  0.000000E+00  0.000000E+00  0.000000E+00  2.804651E-03  1.358989E-03 -3.538839E-04  2.427752E-03                                                                                                                                                                                                                                                                                                                                                                                                                                                                                              
  8.000000E+02  1.250000E+02 -4.725000E+03  7.995440E-09  1.585760E-09 -4.026837E-10  7.826256E-09  4.160719E-11  8.445993E-12 -2.141954E-12  4.068458E-11  0.000000E+00  0.000000E+00  0.000000E+00  0.000000E+00  0.000000E+00  0.000000E+00  0.000000E+00  0.000000E+00  7.750549E-03  1.488221E-03 -3.746612E-04  7.597094E-03                                                                                                                                                                                                                                                                                                                                                                                                                                                                                              
  9.350000E+02  1.250000E+02 -4.725000E+03  1.084516E-08  1.686929E-09 -5.341606E-10  1.069983E-08  5.639278E-11  8.996355E-12 -2.845765E-12  5.559778E-11  0.000000E+00  0.000000E+00  0.000000E+00  0.000000E+00  0.000000E+00  0.000000E+00  0.000000E+00  0.000000E+00  1.053411E-02  1.591608E-03 -5.012196E-04  1.040111E-02                                                                                                                                                                                                                                                                                                                                                                                                                                                                                              
  1.185000E+03  1.250000E+02 -4.725000E+03  1.366161E-08  1.496883E-09 -5.190787E-10  1.356943E-08  7.103198E-11  7.990821E-12 -2.770114E-12  7.052670E-11  0.000000E+00  0.000000E+00  0.000000E+00  0.000000E+00  0.000000E+00  0.000000E+00  0.000000E+00  0.000000E+00  1.330848E-02  1.418636E-03 -4.911506E-04  1.322353E-02                                                                                                                                                                                                                                                                                                                                                                                                                                                                                              