Title="TOUGHREACT V3.30-OMP flowvector.tec: Liq & Gas Fluxes (kg/s/m^2), Pore Velocities (m/s), & Heat Fluxes (J/s/m2)"                                                                                                                                                                                                                                                                                                                                                                                                                                                                                                                                                                                                                                                                                                         
Variables= "X(m)"     "Y(m)"      "Z(m)"     "FluxLiq"   "FluxLiq_X"   "FluxLiq_Y"   "FluxLiq_Z"   "PorVelLiq"  "PorVelLiqX"  "PorVelLiqY"  "PorVelLiqZ"     "FluxGas"   "FluxGas_X"   "FluxGas_Y"   "FluxGas_Z"   "PorVelGas"  "PorVelGasX"  "PorVelGasY"  "PorVelGasZ"    "HeatFlux"  "HeatFlux_X"  "HeatFlux_Y"  "HeatFlux_Z"                                                                                                                                                                                                                                                                                                                                                                                                                                                                                                
Zone T= "3.33000000E+10 sec" I=     9 J=    10 K=    23 F=Point
  1.250000E+02  1.250000E+02 -5.425000E+03  3.646504E-09 -8.660283E-11 -2.957130E-10  3.633462E-09  2.018410E-11 -4.839076E-13 -1.652343E-12  2.011053E-11  0.000000E+00  0.000000E+00  0.000000E+00  0.000000E+00  0.000000E+00  0.000000E+00  0.000000E+00  0.000000E+00  4.081513E-03 -9.693489E-05 -3.309912E-04  4.066914E-03                                                                                                                                                                                                                                                                                                                                                                                                                                                                                              
  3.750000E+02  1.250000E+02 -5.425000E+03  3.441507E-09  1.265390E-10 -3.321294E-10  3.423105E-09  1.905010E-11  7.070608E-13 -1.855831E-12  1.894630E-11  0.000000E+00  0.000000E+00  0.000000E+00  0.000000E+00  0.000000E+00  0.000000E+00  0.000000E+00  0.000000E+00  3.852093E-03  1.416356E-04 -3.717565E-04  3.831495E-03                                                                                                                                                                                                                                                                                                                                                                                                                                                                                              
  6.250000E+02  1.250000E+02 -5.425000E+03  3.431673E-09  1.090752E-09 -3.790032E-10  3.231563E-09  1.901443E-11  6.094783E-12 -2.117755E-12  1.788623E-11  0.000000E+00  0.000000E+00  0.000000E+00  0.000000E+00  0.000000E+00  0.000000E+00  0.000000E+00  0.000000E+00  3.841121E-03  1.220892E-03 -4.242286E-04  3.617135E-03                                                                                                                                                                                                                                                                                                                                                                                                                                                                                              
  7.600000E+02  1.250000E+02 -5.425000E+03  3.822925E-09  1.795517E-09 -4.156004E-10  3.349351E-09  2.120646E-11  1.003280E-11 -2.322250E-12  1.853818E-11  0.000000E+00  0.000000E+00  0.000000E+00  0.000000E+00  0.000000E+00  0.000000E+00  0.000000E+00  0.000000E+00  4.279045E-03  2.009745E-03 -4.651907E-04  3.748967E-03                                                                                                                                                                                                                                                                                                                                                                                                                                                                                              
  7.800000E+02  1.250000E+02 -5.425000E+03  3.878231E-09  1.873895E-09 -4.210439E-10  3.369260E-09  2.151589E-11  1.047075E-11 -2.352666E-12  1.864838E-11  0.000000E+00  0.000000E+00  0.000000E+00  0.000000E+00  0.000000E+00  0.000000E+00  0.000000E+00  0.000000E+00  4.340946E-03  2.097471E-03 -4.712834E-04  3.771249E-03                                                                                                                                                                                                                                                                                                                                                                                                                                                                                              
  8.000000E+02  1.250000E+02 -5.425000E+03  3.934591E-09  1.947420E-09 -4.264924E-10  3.392147E-09  2.183097E-11  1.088159E-11 -2.383111E-12  1.877506E-11  0.000000E+00  0.000000E+00  0.000000E+00  0.000000E+00  0.000000E+00  0.000000E+00  0.000000E+00  0.000000E+00  4.404029E-03  2.179768E-03 -4.773816E-04  3.796865E-03                                                                                                                                                                                                                                                                                                                                                                                                                                                                                              
  9.350000E+02  1.250000E+02 -5.425000E+03  4.201046E-09  2.190999E-09 -4.631336E-10  3.554409E-09  2.331549E-11  1.224263E-11 -2.587850E-12  1.967316E-11  0.000000E+00  0.000000E+00  0.000000E+00  0.000000E+00  0.000000E+00  0.000000E+00  0.000000E+00  0.000000E+00  4.702259E-03  2.452403E-03 -5.183916E-04  3.978471E-03                                                                                                                                                                                                                                                                                                                                                                                                                                                                                              
  1.185000E+03  1.250000E+02 -5.425000E+03  4.452008E-09  2.029566E-09 -5.121502E-10  3.929241E-09  2.469350E-11  1.134060E-11 -2.861742E-12  2.174788E-11  0.000000E+00  0.000000E+00  0.000000E+00  0.000000E+00  0.000000E+00  0.000000E+00  0.000000E+00  0.000000E+00  4.983132E-03  2.271699E-03 -5.732502E-04  4.397996E-03                                                                                                                                                                                                                                                                                                                                                                                                                                                                                              
  1.435000E+03  1.250000E+02 -5.425000E+03  4.328573E-09  8.299986E-10 -5.296599E-10  4.215105E-09  2.397012E-11  4.637789E-12 -2.959585E-12  2.333021E-11  0.000000E+00  0.000000E+00  0.000000E+00  0.000000E+00  0.000000E+00  0.000000E+00  0.000000E+00  0.000000E+00  4.844961E-03  9.290167E-04 -5.928465E-04  4.717956E-03                                                                                                                                                                                                                                                                                                                                                                                                                                                                                              
  1.250000E+02  1.250000E+02 -5.225000E+03  7.601930E-09 -2.520428E-10 -3.631918E-10  7.589065E-09  4.172506E-11 -1.381061E-12 -1.990096E-12  4.165469E-11  0.000000E+00  0.000000E+00  0.000000E+00  0.000000E+00  0.000000E+00  0.000000E+00  0.000000E+00  0.000000E+00  8.233747E-03 -2.646703E-04 -3.813851E-04  8.220650E-03                                                                                                                                                                                                                                                                                                                                                                                                                                                                                              
  3.750000E+02  1.250000E+02 -5.225000E+03  6.704569E-09 -2.031267E-10 -4.370458E-10  6.687225E-09  3.681899E-11 -1.113025E-12 -2.394785E-12  3.672417E-11  0.000000E+00  0.000000E+00  0.000000E+00  0.000000E+00  0.000000E+00  0.000000E+00  0.000000E+00  0.000000E+00  7.276771E-03 -2.133035E-04 -4.589487E-04  7.259151E-03                                                                                                                                                                                                                                                                                                                                                                                                                                                                                              
  6.250000E+02  1.250000E+02 -5.225000E+03  5.821754E-09  1.068246E-09 -5.055705E-10  5.700533E-09  3.199531E-11  5.853460E-12 -2.770286E-12  3.133309E-11  0.000000E+00  0.000000E+00  0.000000E+00  0.000000E+00  0.000000E+00  0.000000E+00  0.000000E+00  0.000000E+00  6.332657E-03  1.121786E-03 -5.309254E-04  6.209852E-03                                                                                                                                                                                                                                                                                                                                                                                                                                                                                              
  7.600000E+02  1.250000E+02 -5.225000E+03  6.542603E-09  2.101742E-09 -5.585912E-10  6.170601E-09  3.593685E-11  1.151652E-11 -3.060813E-12  3.390367E-11  0.000000E+00  0.000000E+00  0.000000E+00  0.000000E+00  0.000000E+00  0.000000E+00  0.000000E+00  0.000000E+00  7.089499E-03  2.207079E-03 -5.865987E-04  6.711609E-03                                                                                                                                                                                                                                                                                                                                                                                                                                                                                              
  7.800000E+02  1.250000E+02 -5.225000E+03  6.666558E-09  2.224658E-09 -5.664518E-10  6.258836E-09  3.661459E-11  1.219005E-11 -3.103885E-12  3.438600E-11  0.000000E+00  0.000000E+00  0.000000E+00  0.000000E+00  0.000000E+00  0.000000E+00  0.000000E+00  0.000000E+00  7.219986E-03  2.336151E-03 -5.948523E-04  6.805640E-03                                                                                                                                                                                                                                                                                                                                                                                                                                                                                              
  8.000000E+02  1.250000E+02 -5.225000E+03  6.855161E-09  2.335774E-09 -5.742934E-10  6.419313E-09  3.764503E-11  1.279891E-11 -3.146853E-12  3.526236E-11  0.000000E+00  0.000000E+00  0.000000E+00  0.000000E+00  0.000000E+00  0.000000E+00  0.000000E+00  0.000000E+00  7.418971E-03  2.452836E-03 -6.030859E-04  6.975744E-03                                                                                                                                                                                                                                                                                                                                                                                                                                                                                              
  9.350000E+02  1.250000E+02 -5.225000E+03  7.677223E-09  2.640317E-09 -6.247234E-10  7.181796E-09  4.213952E-11  1.446768E-11 -3.423183E-12  3.942978E-11  0.000000E+00  0.000000E+00  0.000000E+00  0.000000E+00  0.000000E+00  0.000000E+00  0.000000E+00  0.000000E+00  8.292478E-03  2.772637E-03 -6.560358E-04  7.787637E-03                                                                                                                                                                                                                                                                                                                                                                                                                                                                                              
  1.185000E+03  1.250000E+02 -5.225000E+03  9.035111E-09  2.463183E-09 -6.764602E-10  8.666508E-09  4.956721E-11  1.349712E-11 -3.706688E-12  4.754994E-11  0.000000E+00  0.000000E+00  0.000000E+00  0.000000E+00  0.000000E+00  0.000000E+00  0.000000E+00  0.000000E+00  9.748974E-03  2.586626E-03 -7.103571E-04  9.372687E-03                                                                                                                                                                                                                                                                                                                                                                                                                                                                                              
  1.435000E+03  1.250000E+02 -5.225000E+03  9.901411E-09  1.016393E-09 -6.783785E-10  9.825715E-09  5.430391E-11  5.569395E-12 -3.717224E-12  5.388950E-11  0.000000E+00  0.000000E+00  0.000000E+00  0.000000E+00  0.000000E+00  0.000000E+00  0.000000E+00  0.000000E+00  1.068717E-02  1.067333E-03 -7.123777E-04  1.060985E-02                                                                                                                                                                                                                                                                                                                                                                                                                                                                                              
  1.250000E+02  1.250000E+02 -4.975000E+03  9.217758E-09 -8.961068E-10 -6.386790E-10  9.151839E-09  4.983087E-11 -4.846811E-12 -3.454468E-12  4.947414E-11  0.000000E+00  0.000000E+00  0.000000E+00  0.000000E+00  0.000000E+00  0.000000E+00  0.000000E+00  0.000000E+00  9.419775E-03 -8.969491E-04 -6.393006E-04  9.355155E-03                                                                                                                                                                                                                                                                                                                                                                                                                                                                                              
  3.750000E+02  1.250000E+02 -4.975000E+03  7.159819E-09 -1.562214E-09 -9.252164E-10  6.925783E-09  3.871240E-11 -8.449502E-12 -5.004148E-12  3.744615E-11  0.000000E+00  0.000000E+00  0.000000E+00  0.000000E+00  0.000000E+00  0.000000E+00  0.000000E+00  0.000000E+00  7.321851E-03 -1.563576E-03 -9.260091E-04  7.092760E-03                                                                                                                                                                                                                                                                                                                                                                                                                                                                                              
  6.250000E+02  1.250000E+02 -4.975000E+03  3.690524E-09  9.687271E-10 -1.064414E-09  3.398317E-09  2.000919E-11  5.239218E-12 -5.756736E-12  1.843307E-11  0.000000E+00  0.000000E+00  0.000000E+00  0.000000E+00  0.000000E+00  0.000000E+00  0.000000E+00  0.000000E+00  3.805843E-03  9.694822E-04 -1.065133E-03  3.522788E-03                                                                                                                                                                                                                                                                                                                                                                                                                                                                                              
  7.600000E+02  1.250000E+02 -4.975000E+03  5.198359E-09  3.501936E-09 -1.210238E-09  3.646191E-09  2.816516E-11  1.894003E-11 -6.545388E-12  1.979164E-11  0.000000E+00  0.000000E+00  0.000000E+00  0.000000E+00  0.000000E+00  0.000000E+00  0.000000E+00  0.000000E+00  5.300912E-03  3.504640E-03 -1.211028E-03  3.788216E-03                                                                                                                                                                                                                                                                                                                                                                                                                                                                                              
  7.800000E+02  1.250000E+02 -4.975000E+03  5.598312E-09  3.971232E-09 -1.234706E-09  3.747788E-09  3.032702E-11  2.147843E-11 -6.677732E-12  2.034239E-11  0.000000E+00  0.000000E+00  0.000000E+00  0.000000E+00  0.000000E+00  0.000000E+00  0.000000E+00  0.000000E+00  5.699029E-03  3.974280E-03 -1.235524E-03  3.893263E-03                                                                                                                                                                                                                                                                                                                                                                                                                                                                                              
  8.000000E+02  1.250000E+02 -4.975000E+03  7.513007E-09  4.286186E-09 -1.262756E-09  6.039812E-09  4.063253E-11  2.318242E-11 -6.829592E-12  3.266397E-11  0.000000E+00  0.000000E+00  0.000000E+00  0.000000E+00  0.000000E+00  0.000000E+00  0.000000E+00  0.000000E+00  7.639871E-03  4.289776E-03 -1.263627E-03  6.194247E-03                                                                                                                                                                                                                                                                                                                                                                                                                                                                                              
  9.350000E+02  1.250000E+02 -4.975000E+03  9.424293E-09  4.624729E-09 -1.399467E-09  8.091395E-09  5.095334E-11  2.501419E-11 -7.569292E-12  4.374059E-11  0.000000E+00  0.000000E+00  0.000000E+00  0.000000E+00  0.000000E+00  0.000000E+00  0.000000E+00  0.000000E+00  9.586889E-03  4.629098E-03 -1.400705E-03  8.277555E-03                                                                                                                                                                                                                                                                                                                                                                                                                                                                                              
  1.185000E+03  1.250000E+02 -4.975000E+03  1.214407E-08  4.241408E-09 -1.468132E-09  1.128421E-08  6.565586E-11  2.294146E-11 -7.940959E-12  6.100264E-11  0.000000E+00  0.000000E+00  0.000000E+00  0.000000E+00  0.000000E+00  0.000000E+00  0.000000E+00  0.000000E+00  1.237319E-02  4.245733E-03 -1.469601E-03  1.152866E-02                                                                                                                                                                                                                                                                                                                                                                                                                                                                                              
  1.435000E+03  1.250000E+02 -4.975000E+03  1.425637E-08  1.798734E-09 -1.360742E-09  1.407682E-08  7.706552E-11  9.729384E-12 -7.360309E-12  7.609376E-11  0.000000E+00  0.000000E+00  0.000000E+00  0.000000E+00  0.000000E+00  0.000000E+00  0.000000E+00  0.000000E+00  1.454412E-02  1.800662E-03 -1.362230E-03  1.436779E-02                                                                                                                                                                                                                                                                                                                                                                                                                                                                                              
  1.250000E+02  1.250000E+02 -4.725000E+03  1.096328E-08 -4.669039E-10 -3.691333E-10  1.094711E-08  5.699119E-11 -2.490425E-12 -1.969597E-12  5.690267E-11  0.000000E+00  0.000000E+00  0.000000E+00  0.000000E+00  0.000000E+00  0.000000E+00  0.000000E+00  0.000000E+00  1.067165E-02 -4.405991E-04 -3.493323E-04  1.065683E-02                                                                                                                                                                                                                                                                                                                                                                                                                                                                                              
  3.750000E+02  1.250000E+02 -4.725000E+03  7.157328E-09 -5.648453E-10 -4.527300E-10  7.120627E-09  3.728219E-11 -3.011942E-12 -2.411434E-12  3.708201E-11  0.000000E+00  0.000000E+00  0.000000E+00  0.000000E+00  0.000000E+00  0.000000E+00  0.000000E+00  0.000000E+00  6.962560E-03 -5.322038E-04 -4.245562E-04  6.929195E-03                                                                                                                                                                                                                                                                                                                                                                                                                                                                                              
  6.250000E+02  1.250000E+02 -4.725000E+03  1.294135E-09  1.171044E-09 -2.951030E-10  4.651409E-10  6.945532E-12  6.228238E-12 -1.568239E-12  2.643878E-12  0.000000E+00  0.000000E+00  0.000000E+00  0.000000E+00  0.000000E+00  0.000000E+00  0.000000E+00  0.000000E+00  1.352210E-03  1.095279E-03 -2.739309E-04  7.441755E-04                                                                                                                                                                                                                                                                                                                                                                                                                                                                                              
  7.600000E+02  1.250000E+02 -4.725000E+03  2.794516E-09  2.708898E-09 -6.654392E-10 -1.684724E-10  1.484832E-11  1.440902E-11 -3.536762E-12 -5.866162E-13  0.000000E+00  0.000000E+00  0.000000E+00  0.000000E+00  0.000000E+00  0.000000E+00  0.000000E+00  0.000000E+00  2.643081E-03  2.533893E-03 -6.182868E-04  4.277641E-04                                                                                                                                                                                                                                                                                                                                                                                                                                                                                              
  7.800000E+02  1.250000E+02 -4.725000E+03  3.156448E-09  3.063727E-09 -7.326679E-10 -1.998411E-10  1.677800E-11  1.630324E-11 -3.894388E-12 -7.342736E-13  0.000000E+00  0.000000E+00  0.000000E+00  0.000000E+00  0.000000E+00  0.000000E+00  0.000000E+00  0.000000E+00  2.978095E-03  2.866315E-03 -6.810956E-04  4.351994E-04                                                                                                                                                                                                                                                                                                                                                                                                                                                                                              
  8.000000E+02  1.250000E+02 -4.725000E+03  6.818481E-09  3.297302E-09 -8.129995E-10  5.912573E-09  3.570149E-11  1.756363E-11 -4.325052E-12  3.078001E-11  0.000000E+00  0.000000E+00  0.000000E+00  0.000000E+00  0.000000E+00  0.000000E+00  0.000000E+00  0.000000E+00  6.568723E-03  3.094315E-03 -7.565540E-04  5.744646E-03                                                                                                                                                                                                                                                                                                                                                                                                                                                                                              
  9.350000E+02  1.250000E+02 -4.725000E+03  1.024762E-08  4.036980E-09 -1.373993E-09  9.318194E-09  5.352195E-11  2.153270E-11 -7.320668E-12  4.844946E-11  0.000000E+00  0.000000E+00  0.000000E+00  0.000000E+00  0.000000E+00  0.000000E+00  0.000000E+00  0.000000E+00  9.910432E-03  3.809541E-03 -1.289152E-03  9.057712E-03                                                                                                                                                                                                                                                                                                                                                                                                                                                                                              
  1.185000E+03  1.250000E+02 -4.725000E+03  1.576391E-08  5.071987E-09 -2.296538E-09  1.474794E-08  8.217652E-11  2.708137E-11 -1.225673E-11  7.661170E-11  0.000000E+00  0.000000E+00  0.000000E+00  0.000000E+00  0.000000E+00  0.000000E+00  0.000000E+00  0.000000E+00  1.529014E-02  4.809451E-03 -2.172709E-03  1.435050E-02                                                                                                                                                                                                                                                                                                                                                                                                                                                                                              