Title="TOUGHREACT V3.30-OMP flowvector.tec: Liq & Gas Fluxes (kg/s/m^2), Pore Velocities (m/s), & Heat Fluxes (J/s/m2)"                                                                                                                                                                                                                                                                                                                                                                                                                                                                                                                                                                                                                                                                                                         
Variables= "X(m)"     "Y(m)"      "Z(m)"     "FluxLiq"   "FluxLiq_X"   "FluxLiq_Y"   "FluxLiq_Z"   "PorVelLiq"  "PorVelLiqX"  "PorVelLiqY"  "PorVelLiqZ"     "FluxGas"   "FluxGas_X"   "FluxGas_Y"   "FluxGas_Z"   "PorVelGas"  "PorVelGasX"  "PorVelGasY"  "PorVelGasZ"    "HeatFlux"  "HeatFlux_X"  "HeatFlux_Y"  "HeatFlux_Z"                                                                                                                                                                                                                                                                                                                                                                                                                                                                                                
Zone T= "9.66000000E+10 sec" I=     9 J=    10 K=    23 F=Point
  1.250000E+02  1.250000E+02 -5.425000E+03  4.066833E-09 -2.051220E-10 -2.814836E-10  4.051891E-09  2.270213E-11 -1.166256E-12 -1.600421E-12  2.261559E-11  0.000000E+00  0.000000E+00  0.000000E+00  0.000000E+00  0.000000E+00  0.000000E+00  0.000000E+00  0.000000E+00  4.785133E-03 -2.413534E-04 -3.312016E-04  4.767552E-03                                                                                                                                                                                                                                                                                                                                                                                                                                                                                              
  3.750000E+02  1.250000E+02 -5.425000E+03  3.841572E-09 -2.057113E-10 -3.103797E-10  3.823483E-09  2.144549E-11 -1.169606E-12 -1.764719E-12  2.134074E-11  0.000000E+00  0.000000E+00  0.000000E+00  0.000000E+00  0.000000E+00  0.000000E+00  0.000000E+00  0.000000E+00  4.520123E-03 -2.420469E-04 -3.652058E-04  4.498838E-03                                                                                                                                                                                                                                                                                                                                                                                                                                                                                              
  6.250000E+02  1.250000E+02 -5.425000E+03  3.657786E-09  6.143261E-10 -3.329744E-10  3.590422E-09  2.042997E-11  3.492869E-12 -1.893193E-12  2.003994E-11  0.000000E+00  0.000000E+00  0.000000E+00  0.000000E+00  0.000000E+00  0.000000E+00  0.000000E+00  0.000000E+00  4.303914E-03  7.228432E-04 -3.917967E-04  4.224650E-03                                                                                                                                                                                                                                                                                                                                                                                                                                                                                              
  7.600000E+02  1.250000E+02 -5.425000E+03  3.910820E-09  1.267092E-09 -3.395869E-10  3.684247E-09  2.187449E-11  7.204298E-12 -1.930789E-12  2.056365E-11  0.000000E+00  0.000000E+00  0.000000E+00  0.000000E+00  0.000000E+00  0.000000E+00  0.000000E+00  0.000000E+00  4.601633E-03  1.490915E-03 -3.995757E-04  4.335036E-03                                                                                                                                                                                                                                                                                                                                                                                                                                                                                              
  7.800000E+02  1.250000E+02 -5.425000E+03  3.950195E-09  1.339516E-09 -3.404356E-10  3.700519E-09  2.209884E-11  7.616076E-12 -1.935614E-12  2.065448E-11  0.000000E+00  0.000000E+00  0.000000E+00  0.000000E+00  0.000000E+00  0.000000E+00  0.000000E+00  0.000000E+00  4.647960E-03  1.576129E-03 -4.005739E-04  4.354181E-03                                                                                                                                                                                                                                                                                                                                                                                                                                                                                              
  8.000000E+02  1.250000E+02 -5.425000E+03  3.991636E-09  1.407345E-09 -3.411449E-10  3.719698E-09  2.233453E-11  8.001730E-12 -1.939647E-12  2.076153E-11  0.000000E+00  0.000000E+00  0.000000E+00  0.000000E+00  0.000000E+00  0.000000E+00  0.000000E+00  0.000000E+00  4.696719E-03  1.655939E-03 -4.014082E-04  4.376746E-03                                                                                                                                                                                                                                                                                                                                                                                                                                                                                              
  9.350000E+02  1.250000E+02 -5.425000E+03  4.198469E-09  1.625364E-09 -3.448886E-10  3.855695E-09  2.350287E-11  9.241316E-12 -1.960932E-12  2.152064E-11  0.000000E+00  0.000000E+00  0.000000E+00  0.000000E+00  0.000000E+00  0.000000E+00  0.000000E+00  0.000000E+00  4.940070E-03  1.912464E-03 -4.058109E-04  4.536749E-03                                                                                                                                                                                                                                                                                                                                                                                                                                                                                              
  1.185000E+03  1.250000E+02 -5.425000E+03  4.412505E-09  1.514034E-09 -3.234186E-10  4.131985E-09  2.468566E-11  8.608332E-12 -1.838859E-12  2.306289E-11  0.000000E+00  0.000000E+00  0.000000E+00  0.000000E+00  0.000000E+00  0.000000E+00  0.000000E+00  0.000000E+00  5.191884E-03  1.781463E-03 -3.805442E-04  4.861814E-03                                                                                                                                                                                                                                                                                                                                                                                                                                                                                              
  1.435000E+03  1.250000E+02 -5.425000E+03  4.352526E-09  6.086762E-10 -2.912199E-10  4.299906E-09  2.430499E-11  3.460748E-12 -1.655789E-12  2.400029E-11  0.000000E+00  0.000000E+00  0.000000E+00  0.000000E+00  0.000000E+00  0.000000E+00  0.000000E+00  0.000000E+00  5.121303E-03  7.161861E-04 -3.426571E-04  5.059388E-03                                                                                                                                                                                                                                                                                                                                                                                                                                                                                              
  1.250000E+02  1.250000E+02 -5.225000E+03  8.865253E-09 -3.639466E-10 -3.396752E-10  8.851264E-09  4.883097E-11 -1.994221E-12 -1.861228E-12  4.875472E-11  0.000000E+00  0.000000E+00  0.000000E+00  0.000000E+00  0.000000E+00  0.000000E+00  0.000000E+00  0.000000E+00  9.822893E-03 -3.822986E-04 -3.568040E-04  9.808964E-03                                                                                                                                                                                                                                                                                                                                                                                                                                                                                              
  3.750000E+02  1.250000E+02 -5.225000E+03  7.937996E-09 -5.415937E-10 -4.069872E-10  7.909034E-09  4.374958E-11 -2.967625E-12 -2.230056E-12  4.359181E-11  0.000000E+00  0.000000E+00  0.000000E+00  0.000000E+00  0.000000E+00  0.000000E+00  0.000000E+00  0.000000E+00  8.819161E-03 -5.689039E-04 -4.275108E-04  8.790403E-03                                                                                                                                                                                                                                                                                                                                                                                                                                                                                              
  6.250000E+02  1.250000E+02 -5.225000E+03  6.820855E-09  5.302706E-10 -4.510783E-10  6.785234E-09  3.763314E-11  2.905583E-12 -2.471654E-12  3.743931E-11  0.000000E+00  0.000000E+00  0.000000E+00  0.000000E+00  0.000000E+00  0.000000E+00  0.000000E+00  0.000000E+00  7.615756E-03  5.570104E-04 -4.738322E-04  7.580565E-03                                                                                                                                                                                                                                                                                                                                                                                                                                                                                              
  7.600000E+02  1.250000E+02 -5.225000E+03  7.320571E-09  1.472755E-09 -4.592885E-10  7.156172E-09  4.036725E-11  8.069868E-12 -2.516644E-12  3.947225E-11  0.000000E+00  0.000000E+00  0.000000E+00  0.000000E+00  0.000000E+00  0.000000E+00  0.000000E+00  0.000000E+00  8.144890E-03  1.547024E-03 -4.824545E-04  7.982054E-03                                                                                                                                                                                                                                                                                                                                                                                                                                                                                              
  7.800000E+02  1.250000E+02 -5.225000E+03  7.414923E-09  1.583438E-09 -4.601920E-10  7.229248E-09  4.088337E-11  8.676358E-12 -2.521595E-12  3.987245E-11  0.000000E+00  0.000000E+00  0.000000E+00  0.000000E+00  0.000000E+00  0.000000E+00  0.000000E+00  0.000000E+00  8.244868E-03  1.663293E-03 -4.834032E-04  8.060870E-03                                                                                                                                                                                                                                                                                                                                                                                                                                                                                              
  8.000000E+02  1.250000E+02 -5.225000E+03  7.577528E-09  1.682518E-09 -4.607893E-10  7.373991E-09  4.177212E-11  9.219273E-12 -2.524869E-12  4.066374E-11  0.000000E+00  0.000000E+00  0.000000E+00  0.000000E+00  0.000000E+00  0.000000E+00  0.000000E+00  0.000000E+00  8.417226E-03  1.767372E-03 -4.840304E-04  8.215339E-03                                                                                                                                                                                                                                                                                                                                                                                                                                                                                              
  9.350000E+02  1.250000E+02 -5.225000E+03  8.264674E-09  1.915061E-09 -4.606317E-10  8.026530E-09  4.553403E-11  1.049353E-11 -2.524011E-12  4.423644E-11  0.000000E+00  0.000000E+00  0.000000E+00  0.000000E+00  0.000000E+00  0.000000E+00  0.000000E+00  0.000000E+00  9.154833E-03  2.011653E-03 -4.838637E-04  8.917965E-03                                                                                                                                                                                                                                                                                                                                                                                                                                                                                              
  1.185000E+03  1.250000E+02 -5.225000E+03  9.249626E-09  1.739925E-09 -4.044325E-10  9.075499E-09  5.093693E-11  9.533946E-12 -2.216090E-12  4.998764E-11  0.000000E+00  0.000000E+00  0.000000E+00  0.000000E+00  0.000000E+00  0.000000E+00  0.000000E+00  0.000000E+00  1.022842E-02  1.827709E-03 -4.248354E-04  1.005483E-02                                                                                                                                                                                                                                                                                                                                                                                                                                                                                              
  1.435000E+03  1.250000E+02 -5.225000E+03  9.695604E-09  6.887815E-10 -3.303326E-10  9.665464E-09  5.338860E-11  3.774215E-12 -1.810078E-12  5.322426E-11  0.000000E+00  0.000000E+00  0.000000E+00  0.000000E+00  0.000000E+00  0.000000E+00  0.000000E+00  0.000000E+00  1.072597E-02  7.235442E-04 -3.470065E-04  1.069591E-02                                                                                                                                                                                                                                                                                                                                                                                                                                                                                              
  1.250000E+02  1.250000E+02 -4.975000E+03  1.129326E-08 -1.007687E-09 -6.058229E-10  1.123188E-08  6.104519E-11 -5.450074E-12 -3.276618E-12  6.071306E-11  0.000000E+00  0.000000E+00  0.000000E+00  0.000000E+00  0.000000E+00  0.000000E+00  0.000000E+00  0.000000E+00  1.154185E-02 -1.008814E-03 -6.065306E-04  1.148167E-02                                                                                                                                                                                                                                                                                                                                                                                                                                                                                              
  3.750000E+02  1.250000E+02 -4.975000E+03  9.289365E-09 -1.965205E-09 -8.970405E-10  9.034688E-09  5.021200E-11 -1.062860E-11 -4.851504E-12  4.883381E-11  0.000000E+00  0.000000E+00  0.000000E+00  0.000000E+00  0.000000E+00  0.000000E+00  0.000000E+00  0.000000E+00  9.495744E-03 -1.967215E-03 -8.979491E-04  9.246237E-03                                                                                                                                                                                                                                                                                                                                                                                                                                                                                              
  6.250000E+02  1.250000E+02 -4.975000E+03  5.403133E-09  2.249427E-10 -1.035448E-09  5.298216E-09  2.925081E-11  1.216377E-12 -5.599713E-12  2.868403E-11  0.000000E+00  0.000000E+00  0.000000E+00  0.000000E+00  0.000000E+00  0.000000E+00  0.000000E+00  0.000000E+00  5.563262E-03  2.251503E-04 -1.036254E-03  5.461261E-03                                                                                                                                                                                                                                                                                                                                                                                                                                                                                              
  7.600000E+02  1.250000E+02 -4.975000E+03  5.984136E-09  2.583203E-09 -1.062638E-09  5.292235E-09  3.241036E-11  1.397031E-11 -5.746754E-12  2.867466E-11  0.000000E+00  0.000000E+00  0.000000E+00  0.000000E+00  0.000000E+00  0.000000E+00  0.000000E+00  0.000000E+00  6.142165E-03  2.585585E-03 -1.063449E-03  5.469005E-03                                                                                                                                                                                                                                                                                                                                                                                                                                                                                              
  7.800000E+02  1.250000E+02 -4.975000E+03  6.239506E-09  3.024522E-09 -1.067959E-09  5.351931E-09  3.379205E-11  1.635723E-11 -5.775554E-12  2.899977E-11  0.000000E+00  0.000000E+00  0.000000E+00  0.000000E+00  0.000000E+00  0.000000E+00  0.000000E+00  0.000000E+00  6.395729E-03  3.027318E-03 -1.068795E-03  5.531580E-03                                                                                                                                                                                                                                                                                                                                                                                                                                                                                              
  8.000000E+02  1.250000E+02 -4.975000E+03  8.384189E-09  3.309209E-09 -1.075354E-09  7.628065E-09  4.532936E-11  1.789734E-11 -5.815685E-12  4.123851E-11  0.000000E+00  0.000000E+00  0.000000E+00  0.000000E+00  0.000000E+00  0.000000E+00  0.000000E+00  0.000000E+00  8.557459E-03  3.312507E-03 -1.076235E-03  7.816592E-03                                                                                                                                                                                                                                                                                                                                                                                                                                                                                              
  9.350000E+02  1.250000E+02 -4.975000E+03  1.004930E-08  3.394041E-09 -1.063312E-09  9.398850E-09  5.432336E-11  1.835674E-11 -5.750825E-12  5.080340E-11  0.000000E+00  0.000000E+00  0.000000E+00  0.000000E+00  0.000000E+00  0.000000E+00  0.000000E+00  0.000000E+00  1.025342E-02  3.397825E-03 -1.064418E-03  9.615323E-03                                                                                                                                                                                                                                                                                                                                                                                                                                                                                              
  1.185000E+03  1.250000E+02 -4.975000E+03  1.176598E-08  2.737907E-09 -8.265780E-10  1.141310E-08  6.361740E-11  1.480847E-11 -4.470668E-12  6.170815E-11  0.000000E+00  0.000000E+00  0.000000E+00  0.000000E+00  0.000000E+00  0.000000E+00  0.000000E+00  0.000000E+00  1.201707E-02  2.741225E-03 -8.275664E-04  1.167094E-02                                                                                                                                                                                                                                                                                                                                                                                                                                                                                              
  1.435000E+03  1.250000E+02 -4.975000E+03  1.234108E-08  1.029295E-09 -5.053970E-10  1.228770E-08  6.674139E-11  5.567245E-12 -2.733604E-12  6.645259E-11  0.000000E+00  0.000000E+00  0.000000E+00  0.000000E+00  0.000000E+00  0.000000E+00  0.000000E+00  0.000000E+00  1.262056E-02  1.030622E-03 -5.060630E-04  1.256822E-02                                                                                                                                                                                                                                                                                                                                                                                                                                                                                              
  1.250000E+02  1.250000E+02 -4.725000E+03  1.369519E-08 -4.971280E-10 -2.942461E-10  1.368300E-08  7.116214E-11 -2.651571E-12 -1.569985E-12  7.109539E-11  0.000000E+00  0.000000E+00  0.000000E+00  0.000000E+00  0.000000E+00  0.000000E+00  0.000000E+00  0.000000E+00  1.333147E-02 -4.692378E-04 -2.785404E-04  1.332029E-02                                                                                                                                                                                                                                                                                                                                                                                                                                                                                              
  3.750000E+02  1.250000E+02 -4.725000E+03  1.030201E-08 -9.234610E-10 -4.031023E-10  1.025262E-08  5.354951E-11 -4.921594E-12 -2.147009E-12  5.327962E-11  0.000000E+00  0.000000E+00  0.000000E+00  0.000000E+00  0.000000E+00  0.000000E+00  0.000000E+00  0.000000E+00  1.000551E-02 -8.680355E-04 -3.780830E-04  9.960613E-03                                                                                                                                                                                                                                                                                                                                                                                                                                                                                              
  6.250000E+02  1.250000E+02 -4.725000E+03  3.552303E-09  1.129790E-10 -2.870281E-10  3.538885E-09  1.857555E-11  5.983861E-13 -1.525128E-12  1.850316E-11  0.000000E+00  0.000000E+00  0.000000E+00  0.000000E+00  0.000000E+00  0.000000E+00  0.000000E+00  0.000000E+00  3.459997E-03  1.056821E-04 -2.663150E-04  3.448114E-03                                                                                                                                                                                                                                                                                                                                                                                                                                                                                              
  7.600000E+02  1.250000E+02 -4.725000E+03  3.030960E-09  1.177588E-09 -3.572236E-10  2.769910E-09  1.594626E-11  6.263302E-12 -1.898361E-12  1.454133E-11  0.000000E+00  0.000000E+00  0.000000E+00  0.000000E+00  0.000000E+00  0.000000E+00  0.000000E+00  0.000000E+00  2.944460E-03  1.101621E-03 -3.317639E-04  2.710389E-03                                                                                                                                                                                                                                                                                                                                                                                                                                                                                              
  7.800000E+02  1.250000E+02 -4.725000E+03  3.099047E-09  1.378703E-09 -3.718602E-10  2.750453E-09  1.632101E-11  7.336113E-12 -1.976307E-12  1.444476E-11  0.000000E+00  0.000000E+00  0.000000E+00  0.000000E+00  0.000000E+00  0.000000E+00  0.000000E+00  0.000000E+00  3.005516E-03  1.289966E-03 -3.455450E-04  2.692529E-03                                                                                                                                                                                                                                                                                                                                                                                                                                                                                              
  8.000000E+02  1.250000E+02 -4.725000E+03  8.178719E-09  1.506717E-09 -3.905946E-10  8.029239E-09  4.255995E-11  8.025345E-12 -2.077684E-12  4.174478E-11  0.000000E+00  0.000000E+00  0.000000E+00  0.000000E+00  0.000000E+00  0.000000E+00  0.000000E+00  0.000000E+00  7.930985E-03  1.414136E-03 -3.633641E-04  7.795429E-03                                                                                                                                                                                                                                                                                                                                                                                                                                                                                              
  9.350000E+02  1.250000E+02 -4.725000E+03  1.104760E-08  1.589091E-09 -4.992586E-10  1.092131E-08  5.744467E-11  8.474967E-12 -2.659949E-12  5.675377E-11  0.000000E+00  0.000000E+00  0.000000E+00  0.000000E+00  0.000000E+00  0.000000E+00  0.000000E+00  0.000000E+00  1.073372E-02  1.499419E-03 -4.685061E-04  1.061815E-02                                                                                                                                                                                                                                                                                                                                                                                                                                                                                              
  1.185000E+03  1.250000E+02 -4.725000E+03  1.376499E-08  1.357846E-09 -4.383846E-10  1.369084E-08  7.157507E-11  7.248888E-12 -2.339609E-12  7.116861E-11  0.000000E+00  0.000000E+00  0.000000E+00  0.000000E+00  0.000000E+00  0.000000E+00  0.000000E+00  0.000000E+00  1.341340E-02  1.286916E-03 -4.148470E-04  1.334507E-02                                                                                                                                                                                                                                                                                                                                                                                                                                                                                              