Title="TOUGHREACT V3.30-OMP flowvector.tec: Liq & Gas Fluxes (kg/s/m^2), Pore Velocities (m/s), & Heat Fluxes (J/s/m2)"                                                                                                                                                                                                                                                                                                                                                                                                                                                                                                                                                                                                                                                                                                         
Variables= "X(m)"     "Y(m)"      "Z(m)"     "FluxLiq"   "FluxLiq_X"   "FluxLiq_Y"   "FluxLiq_Z"   "PorVelLiq"  "PorVelLiqX"  "PorVelLiqY"  "PorVelLiqZ"     "FluxGas"   "FluxGas_X"   "FluxGas_Y"   "FluxGas_Z"   "PorVelGas"  "PorVelGasX"  "PorVelGasY"  "PorVelGasZ"    "HeatFlux"  "HeatFlux_X"  "HeatFlux_Y"  "HeatFlux_Z"                                                                                                                                                                                                                                                                                                                                                                                                                                                                                                
Zone T= "4.00000000E+10 sec" I=     9 J=    10 K=    23 F=Point
  1.250000E+02  1.250000E+02 -5.425000E+03  3.793759E-09 -1.385522E-10 -2.795002E-10  3.780911E-09  2.101633E-11 -7.755283E-13 -1.564465E-12  2.094366E-11  0.000000E+00  0.000000E+00  0.000000E+00  0.000000E+00  0.000000E+00  0.000000E+00  0.000000E+00  0.000000E+00  4.269252E-03 -1.559190E-04 -3.145327E-04  4.254794E-03                                                                                                                                                                                                                                                                                                                                                                                                                                                                                              
  3.750000E+02  1.250000E+02 -5.425000E+03  3.580710E-09 -2.783558E-11 -3.112060E-10  3.567052E-09  1.983633E-11 -1.558043E-13 -1.741940E-12  1.975908E-11  0.000000E+00  0.000000E+00  0.000000E+00  0.000000E+00  0.000000E+00  0.000000E+00  0.000000E+00  0.000000E+00  4.029534E-03 -3.132463E-05 -3.502167E-04  4.014164E-03                                                                                                                                                                                                                                                                                                                                                                                                                                                                                              
  6.250000E+02  1.250000E+02 -5.425000E+03  3.482976E-09  8.491282E-10 -3.454986E-10  3.360168E-09  1.930751E-11  4.752908E-12 -1.933896E-12  1.861316E-11  0.000000E+00  0.000000E+00  0.000000E+00  0.000000E+00  0.000000E+00  0.000000E+00  0.000000E+00  0.000000E+00  3.919586E-03  9.555698E-04 -3.888131E-04  3.781384E-03                                                                                                                                                                                                                                                                                                                                                                                                                                                                                              
  7.600000E+02  1.250000E+02 -5.425000E+03  3.799748E-09  1.514836E-09 -3.684820E-10  3.465195E-09  2.108544E-11  8.479146E-12 -2.062543E-12  1.919495E-11  0.000000E+00  0.000000E+00  0.000000E+00  0.000000E+00  0.000000E+00  0.000000E+00  0.000000E+00  0.000000E+00  4.276056E-03  1.704727E-03 -4.146761E-04  3.899565E-03                                                                                                                                                                                                                                                                                                                                                                                                                                                                                              
  7.800000E+02  1.250000E+02 -5.425000E+03  3.846359E-09  1.588738E-09 -3.718472E-10  3.483119E-09  2.134670E-11  8.892805E-12 -2.081380E-12  1.929424E-11  0.000000E+00  0.000000E+00  0.000000E+00  0.000000E+00  0.000000E+00  0.000000E+00  0.000000E+00  0.000000E+00  4.328507E-03  1.787890E-03 -4.184628E-04  3.919734E-03                                                                                                                                                                                                                                                                                                                                                                                                                                                                                              
  8.000000E+02  1.250000E+02 -5.425000E+03  3.894515E-09  1.658004E-09 -3.751583E-10  3.503930E-09  2.161636E-11  9.280511E-12 -2.099913E-12  1.940952E-11  0.000000E+00  0.000000E+00  0.000000E+00  0.000000E+00  0.000000E+00  0.000000E+00  0.000000E+00  0.000000E+00  4.382698E-03  1.865837E-03 -4.221887E-04  3.943153E-03                                                                                                                                                                                                                                                                                                                                                                                                                                                                                              
  9.350000E+02  1.250000E+02 -5.425000E+03  4.127948E-09  1.884015E-09 -3.969989E-10  3.651415E-09  2.291852E-11  1.054559E-11 -2.222163E-12  2.022650E-11  0.000000E+00  0.000000E+00  0.000000E+00  0.000000E+00  0.000000E+00  0.000000E+00  0.000000E+00  0.000000E+00  4.645375E-03  2.120175E-03 -4.467645E-04  4.109108E-03                                                                                                                                                                                                                                                                                                                                                                                                                                                                                              
  1.185000E+03  1.250000E+02 -5.425000E+03  4.361316E-09  1.747619E-09 -4.146065E-10  3.974293E-09  2.420208E-11  9.782126E-12 -2.320720E-12  2.201511E-11  0.000000E+00  0.000000E+00  0.000000E+00  0.000000E+00  0.000000E+00  0.000000E+00  0.000000E+00  0.000000E+00  4.907967E-03  1.966673E-03 -4.665741E-04  4.472432E-03                                                                                                                                                                                                                                                                                                                                                                                                                                                                                              
  1.435000E+03  1.250000E+02 -5.425000E+03  4.278859E-09  7.092937E-10 -4.106670E-10  4.199630E-09  2.371147E-11  3.970207E-12 -2.298672E-12  2.326344E-11  0.000000E+00  0.000000E+00  0.000000E+00  0.000000E+00  0.000000E+00  0.000000E+00  0.000000E+00  0.000000E+00  4.815166E-03  7.981967E-04 -4.621390E-04  4.726006E-03                                                                                                                                                                                                                                                                                                                                                                                                                                                                                              
  1.250000E+02  1.250000E+02 -5.225000E+03  8.113547E-09 -3.035204E-10 -3.444710E-10  8.100547E-09  4.454030E-11 -1.663039E-12 -1.887412E-12  4.446921E-11  0.000000E+00  0.000000E+00  0.000000E+00  0.000000E+00  0.000000E+00  0.000000E+00  0.000000E+00  0.000000E+00  8.804159E-03 -3.187374E-04 -3.617384E-04  8.790948E-03                                                                                                                                                                                                                                                                                                                                                                                                                                                                                              
  3.750000E+02  1.250000E+02 -5.225000E+03  7.215804E-09 -3.646528E-10 -4.139385E-10  7.194686E-09  3.963112E-11 -1.997994E-12 -2.268043E-12  3.951569E-11  0.000000E+00  0.000000E+00  0.000000E+00  0.000000E+00  0.000000E+00  0.000000E+00  0.000000E+00  0.000000E+00  7.845087E-03 -3.829357E-04 -4.346971E-04  7.823669E-03                                                                                                                                                                                                                                                                                                                                                                                                                                                                                              
  6.250000E+02  1.250000E+02 -5.225000E+03  6.220958E-09  8.025942E-10 -4.686762E-10  6.151138E-09  3.419420E-11  4.397575E-12 -2.567978E-12  3.381287E-11  0.000000E+00  0.000000E+00  0.000000E+00  0.000000E+00  0.000000E+00  0.000000E+00  0.000000E+00  0.000000E+00  6.782922E-03  8.428471E-04 -4.921956E-04  6.712331E-03                                                                                                                                                                                                                                                                                                                                                                                                                                                                                              
  7.600000E+02  1.250000E+02 -5.225000E+03  6.829717E-09  1.787197E-09 -5.019433E-10  6.572596E-09  3.752281E-11  9.792413E-12 -2.750254E-12  3.611794E-11  0.000000E+00  0.000000E+00  0.000000E+00  0.000000E+00  0.000000E+00  0.000000E+00  0.000000E+00  0.000000E+00  7.423349E-03  1.876828E-03 -5.271266E-04  7.162804E-03                                                                                                                                                                                                                                                                                                                                                                                                                                                                                              
  7.800000E+02  1.250000E+02 -5.225000E+03  6.938724E-09  1.903486E-09 -5.067521E-10  6.653257E-09  3.811876E-11  1.042959E-11 -2.776603E-12  3.655891E-11  0.000000E+00  0.000000E+00  0.000000E+00  0.000000E+00  0.000000E+00  0.000000E+00  0.000000E+00  0.000000E+00  7.538229E-03  1.998946E-03 -5.321758E-04  7.248855E-03                                                                                                                                                                                                                                                                                                                                                                                                                                                                                              
  8.000000E+02  1.250000E+02 -5.225000E+03  7.114225E-09  2.008084E-09 -5.114228E-10  6.805751E-09  3.907749E-11  1.100270E-11 -2.802195E-12  3.739169E-11  0.000000E+00  0.000000E+00  0.000000E+00  0.000000E+00  0.000000E+00  0.000000E+00  0.000000E+00  0.000000E+00  7.723464E-03  2.108790E-03 -5.370799E-04  7.410563E-03                                                                                                                                                                                                                                                                                                                                                                                                                                                                                              
  9.350000E+02  1.250000E+02 -5.225000E+03  7.866765E-09  2.274790E-09 -5.397179E-10  7.511327E-09  4.319173E-11  1.246406E-11 -2.957228E-12  4.124837E-11  0.000000E+00  0.000000E+00  0.000000E+00  0.000000E+00  0.000000E+00  0.000000E+00  0.000000E+00  0.000000E+00  8.523835E-03  2.388869E-03 -5.667877E-04  8.162586E-03                                                                                                                                                                                                                                                                                                                                                                                                                                                                                              
  1.185000E+03  1.250000E+02 -5.225000E+03  9.039288E-09  2.097005E-09 -5.428195E-10  8.775913E-09  4.960694E-11  1.148998E-11 -2.974232E-12  4.816620E-11  0.000000E+00  0.000000E+00  0.000000E+00  0.000000E+00  0.000000E+00  0.000000E+00  0.000000E+00  0.000000E+00  9.783017E-03  2.202171E-03 -5.700392E-04  9.514879E-03                                                                                                                                                                                                                                                                                                                                                                                                                                                                                              
  1.435000E+03  1.250000E+02 -5.225000E+03  9.700607E-09  8.502830E-10 -5.118356E-10  9.649706E-09  5.322519E-11  4.658921E-12 -2.804483E-12  5.294667E-11  0.000000E+00  0.000000E+00  0.000000E+00  0.000000E+00  0.000000E+00  0.000000E+00  0.000000E+00  0.000000E+00  1.050137E-02  8.929293E-04 -5.375071E-04  1.044953E-02                                                                                                                                                                                                                                                                                                                                                                                                                                                                                              
  1.250000E+02  1.250000E+02 -4.975000E+03  1.014287E-08 -9.449448E-10 -6.102707E-10  1.008030E-08  5.482631E-11 -5.110679E-12 -3.300632E-12  5.448771E-11  0.000000E+00  0.000000E+00  0.000000E+00  0.000000E+00  0.000000E+00  0.000000E+00  0.000000E+00  0.000000E+00  1.036409E-02 -9.458582E-04 -6.108819E-04  1.030274E-02                                                                                                                                                                                                                                                                                                                                                                                                                                                                                              
  3.750000E+02  1.250000E+02 -4.975000E+03  8.142337E-09 -1.756353E-09 -8.956116E-10  7.900048E-09  4.401527E-11 -9.498991E-12 -4.843754E-12  4.270423E-11  0.000000E+00  0.000000E+00  0.000000E+00  0.000000E+00  0.000000E+00  0.000000E+00  0.000000E+00  0.000000E+00  8.323340E-03 -1.757918E-03 -8.964007E-04  8.086049E-03                                                                                                                                                                                                                                                                                                                                                                                                                                                                                              
  6.250000E+02  1.250000E+02 -4.975000E+03  4.416707E-09  6.061979E-10 -1.022377E-09  4.253771E-09  2.392717E-11  3.278291E-12 -5.529059E-12  2.304760E-11  0.000000E+00  0.000000E+00  0.000000E+00  0.000000E+00  0.000000E+00  0.000000E+00  0.000000E+00  0.000000E+00  4.553032E-03  6.066844E-04 -1.023083E-03  4.394922E-03                                                                                                                                                                                                                                                                                                                                                                                                                                                                                              
  7.600000E+02  1.250000E+02 -4.975000E+03  5.471036E-09  3.060619E-09 -1.118621E-09  4.394717E-09  2.963818E-11  1.655224E-11 -6.049536E-12  2.382956E-11  0.000000E+00  0.000000E+00  0.000000E+00  0.000000E+00  0.000000E+00  0.000000E+00  0.000000E+00  0.000000E+00  5.599296E-03  3.063056E-03 -1.119369E-03  4.551573E-03                                                                                                                                                                                                                                                                                                                                                                                                                                                                                              
  7.800000E+02  1.250000E+02 -4.975000E+03  5.806565E-09  3.516027E-09 -1.135190E-09  4.479407E-09  3.145214E-11  1.901536E-11 -6.139157E-12  2.428917E-11  0.000000E+00  0.000000E+00  0.000000E+00  0.000000E+00  0.000000E+00  0.000000E+00  0.000000E+00  0.000000E+00  5.932686E-03  3.518813E-03 -1.135962E-03  4.639430E-03                                                                                                                                                                                                                                                                                                                                                                                                                                                                                              
  8.000000E+02  1.250000E+02 -4.975000E+03  7.852443E-09  3.815819E-09 -1.154795E-09  6.765119E-09  4.245959E-11  2.063719E-11 -6.245327E-12  3.657758E-11  0.000000E+00  0.000000E+00  0.000000E+00  0.000000E+00  0.000000E+00  0.000000E+00  0.000000E+00  0.000000E+00  8.000023E-03  3.819110E-03 -1.155615E-03  6.933925E-03                                                                                                                                                                                                                                                                                                                                                                                                                                                                                              
  9.350000E+02  1.250000E+02 -4.975000E+03  9.656676E-09  4.025446E-09 -1.230433E-09  8.690984E-09  5.220229E-11  2.177155E-11 -6.654658E-12  4.697653E-11  0.000000E+00  0.000000E+00  0.000000E+00  0.000000E+00  0.000000E+00  0.000000E+00  0.000000E+00  0.000000E+00  9.837393E-03  4.029353E-03 -1.231552E-03  8.889427E-03                                                                                                                                                                                                                                                                                                                                                                                                                                                                                              
  1.185000E+03  1.250000E+02 -4.975000E+03  1.189587E-08  3.500178E-09 -1.159915E-09  1.130996E-08  6.431255E-11  1.893112E-11 -6.273497E-12  6.114213E-11  0.000000E+00  0.000000E+00  0.000000E+00  0.000000E+00  0.000000E+00  0.000000E+00  0.000000E+00  0.000000E+00  1.213309E-02  3.503846E-03 -1.161110E-03  1.155798E-02                                                                                                                                                                                                                                                                                                                                                                                                                                                                                              
  1.435000E+03  1.250000E+02 -4.975000E+03  1.327484E-08  1.417536E-09 -9.644069E-10  1.316366E-08  7.176904E-11  7.667045E-12 -5.216220E-12  7.116743E-11  0.000000E+00  0.000000E+00  0.000000E+00  0.000000E+00  0.000000E+00  0.000000E+00  0.000000E+00  0.000000E+00  1.355531E-02  1.419102E-03 -9.654930E-04  1.344620E-02                                                                                                                                                                                                                                                                                                                                                                                                                                                                                              
  1.250000E+02  1.250000E+02 -4.725000E+03  1.220310E-08 -4.668565E-10 -3.068848E-10  1.219031E-08  6.341936E-11 -2.490042E-12 -1.637371E-12  6.334930E-11  0.000000E+00  0.000000E+00  0.000000E+00  0.000000E+00  0.000000E+00  0.000000E+00  0.000000E+00  0.000000E+00  1.187784E-02 -4.405690E-04 -2.904335E-04  1.186612E-02                                                                                                                                                                                                                                                                                                                                                                                                                                                                                              
  3.750000E+02  1.250000E+02 -4.725000E+03  8.716998E-09 -7.696084E-10 -4.024976E-10  8.673624E-09  4.533966E-11 -4.102042E-12 -2.143760E-12  4.510279E-11  0.000000E+00  0.000000E+00  0.000000E+00  0.000000E+00  0.000000E+00  0.000000E+00  0.000000E+00  0.000000E+00  8.469359E-03 -7.237369E-04 -3.774592E-04  8.429933E-03                                                                                                                                                                                                                                                                                                                                                                                                                                                                                              
  6.250000E+02  1.250000E+02 -4.725000E+03  1.922366E-09  6.464220E-10 -2.425221E-10  1.794105E-09  1.019727E-11  3.436364E-12 -1.288727E-12  9.513930E-12  0.000000E+00  0.000000E+00  0.000000E+00  0.000000E+00  0.000000E+00  0.000000E+00  0.000000E+00  0.000000E+00  1.887528E-03  6.046072E-04 -2.251081E-04  1.773848E-03                                                                                                                                                                                                                                                                                                                                                                                                                                                                                              
  7.600000E+02  1.250000E+02 -4.725000E+03  2.348481E-09  2.049472E-09 -4.877787E-10  1.037835E-09  1.254767E-11  1.090075E-11 -2.592327E-12  5.647779E-12  0.000000E+00  0.000000E+00  0.000000E+00  0.000000E+00  0.000000E+00  0.000000E+00  0.000000E+00  0.000000E+00  2.300660E-03  1.917073E-03 -4.531858E-04  1.188482E-03                                                                                                                                                                                                                                                                                                                                                                                                                                                                                              
  7.800000E+02  1.250000E+02 -4.725000E+03  2.625691E-09  2.360254E-09 -5.337430E-10  1.019103E-09  1.402481E-11  1.255905E-11 -2.836833E-12  5.560401E-12  0.000000E+00  0.000000E+00  0.000000E+00  0.000000E+00  0.000000E+00  0.000000E+00  0.000000E+00  0.000000E+00  2.558932E-03  2.208149E-03 -4.961427E-04  1.194177E-03                                                                                                                                                                                                                                                                                                                                                                                                                                                                                              
  8.000000E+02  1.250000E+02 -4.725000E+03  7.551388E-09  2.544582E-09 -5.897334E-10  7.085251E-09  3.936809E-11  1.355330E-11 -3.137101E-12  3.682815E-11  0.000000E+00  0.000000E+00  0.000000E+00  0.000000E+00  0.000000E+00  0.000000E+00  0.000000E+00  0.000000E+00  7.298930E-03  2.387907E-03 -5.487601E-04  6.875401E-03                                                                                                                                                                                                                                                                                                                                                                                                                                                                                              
  9.350000E+02  1.250000E+02 -4.725000E+03  1.062401E-08  2.908289E-09 -9.627791E-10  1.017273E-08  5.533009E-11  1.551104E-11 -5.129432E-12  5.286318E-11  0.000000E+00  0.000000E+00  0.000000E+00  0.000000E+00  0.000000E+00  0.000000E+00  0.000000E+00  0.000000E+00  1.029981E-02  2.744180E-03 -9.033499E-04  9.886328E-03                                                                                                                                                                                                                                                                                                                                                                                                                                                                                              
  1.185000E+03  1.250000E+02 -4.725000E+03  1.472841E-08  3.271659E-09 -1.412583E-09  1.429080E-08  7.664486E-11  1.746723E-11 -7.538620E-12  7.424621E-11  0.000000E+00  0.000000E+00  0.000000E+00  0.000000E+00  0.000000E+00  0.000000E+00  0.000000E+00  0.000000E+00  1.431855E-02  3.101911E-03 -1.336460E-03  1.391449E-02                                                                                                                                                                                                                                                                                                                                                                                                                                                                                              