Title="TOUGHREACT V3.30-OMP flowvector.tec: Liq & Gas Fluxes (kg/s/m^2), Pore Velocities (m/s), & Heat Fluxes (J/s/m2)"                                                                                                                                                                                                                                                                                                                                                                                                                                                                                                                                                                                                                                                                                                         
Variables= "X(m)"     "Y(m)"      "Z(m)"     "FluxLiq"   "FluxLiq_X"   "FluxLiq_Y"   "FluxLiq_Z"   "PorVelLiq"  "PorVelLiqX"  "PorVelLiqY"  "PorVelLiqZ"     "FluxGas"   "FluxGas_X"   "FluxGas_Y"   "FluxGas_Z"   "PorVelGas"  "PorVelGasX"  "PorVelGasY"  "PorVelGasZ"    "HeatFlux"  "HeatFlux_X"  "HeatFlux_Y"  "HeatFlux_Z"                                                                                                                                                                                                                                                                                                                                                                                                                                                                                                
Zone T= "1.00000000E+10 sec" I=     9 J=    10 K=    23 F=Point
  1.250000E+02  1.250000E+02 -5.425000E+03  3.598447E-09  3.122447E-10 -5.138658E-10 -3.547854E-09  1.990311E-11  1.739046E-12 -2.861968E-12 -1.961934E-11  0.000000E+00  0.000000E+00  0.000000E+00  0.000000E+00  0.000000E+00  0.000000E+00  0.000000E+00  0.000000E+00  3.781718E-03  3.428077E-04 -5.641662E-04 -3.723652E-03                                                                                                                                                                                                                                                                                                                                                                                                                                                                                              
  3.750000E+02  1.250000E+02 -5.425000E+03  4.083619E-09  1.394200E-09 -5.556479E-10 -3.797816E-09  2.260408E-11  7.765019E-12 -3.094686E-12 -2.100171E-11  0.000000E+00  0.000000E+00  0.000000E+00  0.000000E+00  0.000000E+00  0.000000E+00  0.000000E+00  0.000000E+00  4.313226E-03  1.530677E-03 -6.100461E-04 -3.986075E-03                                                                                                                                                                                                                                                                                                                                                                                                                                                                                              
  6.250000E+02  1.250000E+02 -5.425000E+03  5.153656E-09  3.265842E-09 -6.637390E-10 -3.931144E-09  2.858506E-11  1.818923E-11 -3.696725E-12 -2.173918E-11  0.000000E+00  0.000000E+00  0.000000E+00  0.000000E+00  0.000000E+00  0.000000E+00  0.000000E+00  0.000000E+00  5.514720E-03  3.585563E-03 -7.287295E-04 -4.126116E-03                                                                                                                                                                                                                                                                                                                                                                                                                                                                                              
  7.600000E+02  1.250000E+02 -5.425000E+03  5.834736E-09  4.435850E-09 -7.773035E-10 -3.709875E-09  3.240376E-11  2.470569E-11 -4.329235E-12 -2.051560E-11  0.000000E+00  0.000000E+00  0.000000E+00  0.000000E+00  0.000000E+00  0.000000E+00  0.000000E+00  0.000000E+00  6.293513E-03  4.870119E-03 -8.534089E-04 -3.893834E-03                                                                                                                                                                                                                                                                                                                                                                                                                                                                                              
  7.800000E+02  1.250000E+02 -5.425000E+03  5.915934E-09  4.568595E-09 -7.946188E-10 -3.673526E-09  3.285910E-11  2.544506E-11 -4.425674E-12 -2.031460E-11  0.000000E+00  0.000000E+00  0.000000E+00  0.000000E+00  0.000000E+00  0.000000E+00  0.000000E+00  0.000000E+00  6.386398E-03  5.015848E-03 -8.724187E-04 -3.855675E-03                                                                                                                                                                                                                                                                                                                                                                                                                                                                                              
  8.000000E+02  1.250000E+02 -5.425000E+03  5.991205E-09  4.694032E-09 -8.123974E-10 -3.633265E-09  3.328141E-11  2.614369E-11 -4.524695E-12 -2.009196E-11  0.000000E+00  0.000000E+00  0.000000E+00  0.000000E+00  0.000000E+00  0.000000E+00  0.000000E+00  0.000000E+00  6.472779E-03  5.153561E-03 -8.919371E-04 -3.813415E-03                                                                                                                                                                                                                                                                                                                                                                                                                                                                                              
  9.350000E+02  1.250000E+02 -5.425000E+03  6.218372E-09  5.159073E-09 -9.352966E-10 -3.343252E-09  3.456271E-11  2.873379E-11 -5.209196E-12 -1.848822E-11  0.000000E+00  0.000000E+00  0.000000E+00  0.000000E+00  0.000000E+00  0.000000E+00  0.000000E+00  0.000000E+00  6.741625E-03  5.664109E-03 -1.026861E-03 -3.508978E-03                                                                                                                                                                                                                                                                                                                                                                                                                                                                                              
  1.185000E+03  1.250000E+02 -5.425000E+03  5.502694E-09  4.773009E-09 -1.197052E-09 -2.462741E-09  3.060426E-11  2.658367E-11 -6.667084E-12 -1.361908E-11  0.000000E+00  0.000000E+00  0.000000E+00  0.000000E+00  0.000000E+00  0.000000E+00  0.000000E+00  0.000000E+00  5.989005E-03  5.240220E-03 -1.314224E-03 -2.584781E-03                                                                                                                                                                                                                                                                                                                                                                                                                                                                                              
  1.435000E+03  1.250000E+02 -5.425000E+03  2.916974E-09  1.991336E-09 -1.368996E-09 -1.633758E-09  1.621032E-11  1.109095E-11 -7.624774E-12 -9.034819E-12  0.000000E+00  0.000000E+00  0.000000E+00  0.000000E+00  0.000000E+00  0.000000E+00  0.000000E+00  0.000000E+00  3.158941E-03  2.186249E-03 -1.502990E-03 -1.714714E-03                                                                                                                                                                                                                                                                                                                                                                                                                                                                                              
  1.250000E+02  1.250000E+02 -5.225000E+03  1.851456E-08  9.365121E-11 -6.416983E-10 -1.850320E-08  1.012870E-10  5.146273E-13 -3.526216E-12 -1.012242E-10  0.000000E+00  0.000000E+00  0.000000E+00  0.000000E+00  0.000000E+00  0.000000E+00  0.000000E+00  0.000000E+00  1.869885E-02  9.829168E-05 -6.735003E-04 -1.868646E-02                                                                                                                                                                                                                                                                                                                                                                                                                                                                                              
  3.750000E+02  1.250000E+02 -5.225000E+03  1.974210E-08  1.029850E-09 -6.941902E-10 -1.970299E-08  1.080050E-10  5.659214E-12 -3.814694E-12 -1.077891E-10  0.000000E+00  0.000000E+00  0.000000E+00  0.000000E+00  0.000000E+00  0.000000E+00  0.000000E+00  0.000000E+00  1.994136E-02  1.080898E-03 -7.286163E-04 -1.989871E-02                                                                                                                                                                                                                                                                                                                                                                                                                                                                                              
  6.250000E+02  1.250000E+02 -5.225000E+03  2.082688E-08  3.406158E-09 -8.257539E-10 -2.052986E-08  1.139494E-10  1.871755E-11 -4.537714E-12 -1.123100E-10  0.000000E+00  0.000000E+00  0.000000E+00  0.000000E+00  0.000000E+00  0.000000E+00  0.000000E+00  0.000000E+00  2.105459E-02  3.575068E-03 -8.667404E-04 -2.073074E-02                                                                                                                                                                                                                                                                                                                                                                                                                                                                                              
  7.600000E+02  1.250000E+02 -5.225000E+03  2.034086E-08  5.043201E-09 -9.833385E-10 -1.968120E-08  1.113041E-10  2.771350E-11 -5.403678E-12 -1.076632E-10  0.000000E+00  0.000000E+00  0.000000E+00  0.000000E+00  0.000000E+00  0.000000E+00  0.000000E+00  0.000000E+00  2.058935E-02  5.293300E-03 -1.032130E-03 -1.987051E-02                                                                                                                                                                                                                                                                                                                                                                                                                                                                                              
  7.800000E+02  1.250000E+02 -5.225000E+03  2.025078E-08  5.245777E-09 -1.007505E-09 -1.953359E-08  1.108136E-10  2.882673E-11 -5.536476E-12 -1.068551E-10  0.000000E+00  0.000000E+00  0.000000E+00  0.000000E+00  0.000000E+00  0.000000E+00  0.000000E+00  0.000000E+00  2.050252E-02  5.505890E-03 -1.057493E-03 -1.972106E-02                                                                                                                                                                                                                                                                                                                                                                                                                                                                                              
  8.000000E+02  1.250000E+02 -5.225000E+03  2.010165E-08  5.436229E-09 -1.032459E-09 -1.932505E-08  1.100017E-10  2.987330E-11 -5.673604E-12 -1.057156E-10  0.000000E+00  0.000000E+00  0.000000E+00  0.000000E+00  0.000000E+00  0.000000E+00  0.000000E+00  0.000000E+00  2.035809E-02  5.705779E-03 -1.083682E-03 -1.951209E-02                                                                                                                                                                                                                                                                                                                                                                                                                                                                                              
  9.350000E+02  1.250000E+02 -5.225000E+03  1.916312E-08  6.195134E-09 -1.204360E-09 -1.809406E-08  1.048783E-10  3.404365E-11 -6.618236E-12 -9.897819E-11  0.000000E+00  0.000000E+00  0.000000E+00  0.000000E+00  0.000000E+00  0.000000E+00  0.000000E+00  0.000000E+00  1.943088E-02  6.502265E-03 -1.264086E-03 -1.826696E-02                                                                                                                                                                                                                                                                                                                                                                                                                                                                                              
  1.185000E+03  1.250000E+02 -5.225000E+03  1.573776E-08  6.043365E-09 -1.589021E-09 -1.444402E-08  8.613846E-11  3.320977E-11 -8.732062E-12 -7.899808E-11  0.000000E+00  0.000000E+00  0.000000E+00  0.000000E+00  0.000000E+00  0.000000E+00  0.000000E+00  0.000000E+00  1.598023E-02  6.342895E-03 -1.667772E-03 -1.457237E-02                                                                                                                                                                                                                                                                                                                                                                                                                                                                                              
  1.435000E+03  1.250000E+02 -5.225000E+03  1.120025E-08  2.611924E-09 -1.831405E-09 -1.073636E-08  6.126793E-11  1.435322E-11 -1.006408E-11 -5.870654E-11  0.000000E+00  0.000000E+00  0.000000E+00  0.000000E+00  0.000000E+00  0.000000E+00  0.000000E+00  0.000000E+00  1.132845E-02  2.741356E-03 -1.922153E-03 -1.082238E-02                                                                                                                                                                                                                                                                                                                                                                                                                                                                                              
  1.250000E+02  1.250000E+02 -4.975000E+03  3.951965E-08 -8.602361E-10 -1.212717E-09 -3.949167E-08  2.138954E-10 -4.665777E-12 -6.577588E-12 -2.137433E-10  0.000000E+00  0.000000E+00  0.000000E+00  0.000000E+00  0.000000E+00  0.000000E+00  0.000000E+00  0.000000E+00  3.826981E-02 -8.606395E-04 -1.213310E-03 -3.824089E-02                                                                                                                                                                                                                                                                                                                                                                                                                                                                                              
  3.750000E+02  1.250000E+02 -4.975000E+03  4.330690E-08 -6.141231E-10 -1.310430E-09 -4.328271E-08  2.342729E-10 -3.330928E-12 -7.107448E-12 -2.341414E-10  0.000000E+00  0.000000E+00  0.000000E+00  0.000000E+00  0.000000E+00  0.000000E+00  0.000000E+00  0.000000E+00  4.178891E-02 -6.144111E-04 -1.310979E-03 -4.176382E-02                                                                                                                                                                                                                                                                                                                                                                                                                                                                                              
  6.250000E+02  1.250000E+02 -4.975000E+03  4.692564E-08  3.838451E-09 -1.506706E-09 -4.674411E-08  2.536462E-10  2.081838E-11 -8.171758E-12 -2.526583E-10  0.000000E+00  0.000000E+00  0.000000E+00  0.000000E+00  0.000000E+00  0.000000E+00  0.000000E+00  0.000000E+00  4.502237E-02  3.839844E-03 -1.507172E-03 -4.483300E-02                                                                                                                                                                                                                                                                                                                                                                                                                                                                                              
  7.600000E+02  1.250000E+02 -4.975000E+03  4.632197E-08  7.497295E-09 -1.876377E-09 -4.567269E-08  2.503891E-10  4.066265E-11 -1.017669E-11 -2.468556E-10  0.000000E+00  0.000000E+00  0.000000E+00  0.000000E+00  0.000000E+00  0.000000E+00  0.000000E+00  0.000000E+00  4.447719E-02  7.499880E-03 -1.876908E-03 -4.380011E-02                                                                                                                                                                                                                                                                                                                                                                                                                                                                                              
  7.800000E+02  1.250000E+02 -4.975000E+03  4.618842E-08  8.125573E-09 -1.935810E-09 -4.542684E-08  2.496736E-10  4.407061E-11 -1.049905E-11 -2.455289E-10  0.000000E+00  0.000000E+00  0.000000E+00  0.000000E+00  0.000000E+00  0.000000E+00  0.000000E+00  0.000000E+00  4.436236E-02  8.128298E-03 -1.936371E-03 -4.356834E-02                                                                                                                                                                                                                                                                                                                                                                                                                                                                                              
  8.000000E+02  1.250000E+02 -4.975000E+03  4.437828E-08  8.635197E-09 -2.000409E-09 -4.348406E-08  2.400268E-10  4.683553E-11 -1.084959E-11 -2.351629E-10  0.000000E+00  0.000000E+00  0.000000E+00  0.000000E+00  0.000000E+00  0.000000E+00  0.000000E+00  0.000000E+00  4.280034E-02  8.638551E-03 -2.001025E-03 -4.187171E-02                                                                                                                                                                                                                                                                                                                                                                                                                                                                                              
  9.350000E+02  1.250000E+02 -4.975000E+03  4.185385E-08  1.052624E-08 -2.413728E-09 -4.043658E-08  2.264731E-10  5.709347E-11 -1.309171E-11 -2.187670E-10  0.000000E+00  0.000000E+00  0.000000E+00  0.000000E+00  0.000000E+00  0.000000E+00  0.000000E+00  0.000000E+00  4.051637E-02  1.053116E-02 -2.414798E-03 -3.904919E-02                                                                                                                                                                                                                                                                                                                                                                                                                                                                                              
  1.185000E+03  1.250000E+02 -4.975000E+03  3.367684E-08  1.153431E-08 -3.429711E-09 -3.145355E-08  1.823533E-10  6.256250E-11 -1.860281E-11 -1.702721E-10  0.000000E+00  0.000000E+00  0.000000E+00  0.000000E+00  0.000000E+00  0.000000E+00  0.000000E+00  0.000000E+00  3.278351E-02  1.154014E-02 -3.431438E-03 -3.049277E-02                                                                                                                                                                                                                                                                                                                                                                                                                                                                                              
  1.435000E+03  1.250000E+02 -4.975000E+03  2.147785E-08  5.422649E-09 -3.950473E-09 -2.040311E-08  1.163981E-10  2.941306E-11 -2.142794E-11 -1.105632E-10  0.000000E+00  0.000000E+00  0.000000E+00  0.000000E+00  0.000000E+00  0.000000E+00  0.000000E+00  0.000000E+00  2.097267E-02  5.425504E-03 -3.952607E-03 -1.986941E-02                                                                                                                                                                                                                                                                                                                                                                                                                                                                                              
  1.250000E+02  1.250000E+02 -4.725000E+03  5.692172E-08 -2.098388E-09 -2.140011E-09 -5.684276E-08  2.981674E-10 -1.122484E-11 -1.145112E-11 -2.977359E-10  0.000000E+00  0.000000E+00  0.000000E+00  0.000000E+00  0.000000E+00  0.000000E+00  0.000000E+00  0.000000E+00  4.101468E-02 -1.981399E-03 -2.026040E-03 -4.091667E-02                                                                                                                                                                                                                                                                                                                                                                                                                                                                                              
  3.750000E+02  1.250000E+02 -4.725000E+03  6.823441E-08 -1.889580E-09 -1.369997E-09 -6.819448E-08  3.553818E-10 -1.010971E-11 -7.318999E-12 -3.551626E-10  0.000000E+00  0.000000E+00  0.000000E+00  0.000000E+00  0.000000E+00  0.000000E+00  0.000000E+00  0.000000E+00  4.513878E-02 -1.784232E-03 -1.286097E-03 -4.508517E-02                                                                                                                                                                                                                                                                                                                                                                                                                                                                                              
  6.250000E+02  1.250000E+02 -4.725000E+03  7.595190E-08  4.263052E-09 -1.111016E-09 -7.582403E-08  3.943834E-10  2.274652E-11 -5.922476E-12 -3.936823E-10  0.000000E+00  0.000000E+00  0.000000E+00  0.000000E+00  0.000000E+00  0.000000E+00  0.000000E+00  0.000000E+00  4.803618E-02  3.993592E-03 -1.032833E-03 -4.785874E-02                                                                                                                                                                                                                                                                                                                                                                                                                                                                                              
  7.600000E+02  1.250000E+02 -4.725000E+03  7.783937E-08  8.676395E-09 -2.048216E-09 -7.732717E-08  4.039824E-10  4.629473E-11 -1.092027E-11 -4.011724E-10  0.000000E+00  0.000000E+00  0.000000E+00  0.000000E+00  0.000000E+00  0.000000E+00  0.000000E+00  0.000000E+00  4.896990E-02  8.126332E-03 -1.906040E-03 -4.825330E-02                                                                                                                                                                                                                                                                                                                                                                                                                                                                                              
  7.800000E+02  1.250000E+02 -4.725000E+03  7.818238E-08  9.861985E-09 -2.218918E-09 -7.752614E-08  4.057318E-10  5.264104E-11 -1.183138E-11 -4.021283E-10  0.000000E+00  0.000000E+00  0.000000E+00  0.000000E+00  0.000000E+00  0.000000E+00  0.000000E+00  0.000000E+00  4.913966E-02  9.239432E-03 -2.065930E-03 -4.821899E-02                                                                                                                                                                                                                                                                                                                                                                                                                                                                                              
  8.000000E+02  1.250000E+02 -4.725000E+03  7.051777E-08  1.080290E-08 -2.424119E-09 -6.964321E-08  3.678489E-10  5.771490E-11 -1.293527E-11 -3.630626E-10  0.000000E+00  0.000000E+00  0.000000E+00  0.000000E+00  0.000000E+00  0.000000E+00  0.000000E+00  0.000000E+00  4.828896E-02  1.014847E-02 -2.259286E-03 -4.715642E-02                                                                                                                                                                                                                                                                                                                                                                                                                                                                                              
  9.350000E+02  1.250000E+02 -4.725000E+03  6.666030E-08  1.603291E-08 -3.888624E-09 -6.458653E-08  3.488579E-10  8.576695E-11 -2.078070E-11 -3.375116E-10  0.000000E+00  0.000000E+00  0.000000E+00  0.000000E+00  0.000000E+00  0.000000E+00  0.000000E+00  0.000000E+00  4.793300E-02  1.514035E-02 -3.653473E-03 -4.533205E-02                                                                                                                                                                                                                                                                                                                                                                                                                                                                                              
  1.185000E+03  1.250000E+02 -4.725000E+03  5.090944E-08  2.318884E-08 -8.125958E-09 -4.458720E-08  2.693767E-10  1.241564E-10 -4.349418E-11 -2.350687E-10  0.000000E+00  0.000000E+00  0.000000E+00  0.000000E+00  0.000000E+00  0.000000E+00  0.000000E+00  0.000000E+00  4.218050E-02  2.198870E-02 -7.695881E-03 -3.516340E-02                                                                                                                                                                                                                                                                                                                                                                                                                                                                                              