Title="TOUGHREACT V3.30-OMP flowvector.tec: Liq & Gas Fluxes (kg/s/m^2), Pore Velocities (m/s), & Heat Fluxes (J/s/m2)"                                                                                                                                                                                                                                                                                                                                                                                                                                                                                                                                                                                                                                                                                                         
Variables= "X(m)"     "Y(m)"      "Z(m)"     "FluxLiq"   "FluxLiq_X"   "FluxLiq_Y"   "FluxLiq_Z"   "PorVelLiq"  "PorVelLiqX"  "PorVelLiqY"  "PorVelLiqZ"     "FluxGas"   "FluxGas_X"   "FluxGas_Y"   "FluxGas_Z"   "PorVelGas"  "PorVelGasX"  "PorVelGasY"  "PorVelGasZ"    "HeatFlux"  "HeatFlux_X"  "HeatFlux_Y"  "HeatFlux_Z"                                                                                                                                                                                                                                                                                                                                                                                                                                                                                                
Zone T= "9.00000000E+10 sec" I=     9 J=    10 K=    23 F=Point
  1.250000E+02  1.250000E+02 -5.425000E+03  4.050693E-09 -2.031135E-10 -2.799428E-10  4.035900E-09  2.259128E-11 -1.152671E-12 -1.588677E-12  2.250585E-11  0.000000E+00  0.000000E+00  0.000000E+00  0.000000E+00  0.000000E+00  0.000000E+00  0.000000E+00  0.000000E+00  4.741789E-03 -2.377689E-04 -3.277055E-04  4.724472E-03                                                                                                                                                                                                                                                                                                                                                                                                                                                                                              
  3.750000E+02  1.250000E+02 -5.425000E+03  3.826755E-09 -2.024930E-10 -3.085759E-10  3.808914E-09  2.134311E-11 -1.149150E-12 -1.751175E-12  2.124009E-11  0.000000E+00  0.000000E+00  0.000000E+00  0.000000E+00  0.000000E+00  0.000000E+00  0.000000E+00  0.000000E+00  4.479680E-03 -2.370425E-04 -3.612281E-04  4.458795E-03                                                                                                                                                                                                                                                                                                                                                                                                                                                                                              
  6.250000E+02  1.250000E+02 -5.425000E+03  3.644803E-09  6.127535E-10 -3.308650E-10  3.577660E-09  2.033821E-11  3.477398E-12 -1.877674E-12  1.995056E-11  0.000000E+00  0.000000E+00  0.000000E+00  0.000000E+00  0.000000E+00  0.000000E+00  0.000000E+00  0.000000E+00  4.266723E-03  7.173087E-04 -3.873254E-04  4.188123E-03                                                                                                                                                                                                                                                                                                                                                                                                                                                                                              
  7.600000E+02  1.250000E+02 -5.425000E+03  3.896199E-09  1.261281E-09 -3.375410E-10  3.670913E-09  2.177037E-11  7.157814E-12 -1.915559E-12  2.047060E-11  0.000000E+00  0.000000E+00  0.000000E+00  0.000000E+00  0.000000E+00  0.000000E+00  0.000000E+00  0.000000E+00  4.561003E-03  1.476493E-03 -3.951388E-04  4.297277E-03                                                                                                                                                                                                                                                                                                                                                                                                                                                                                              
  7.800000E+02  1.250000E+02 -5.425000E+03  3.935298E-09  1.333220E-09 -3.384018E-10  3.687083E-09  2.199270E-11  7.566075E-12 -1.920444E-12  2.056077E-11  0.000000E+00  0.000000E+00  0.000000E+00  0.000000E+00  0.000000E+00  0.000000E+00  0.000000E+00  0.000000E+00  4.606771E-03  1.560705E-03 -3.961462E-04  4.316203E-03                                                                                                                                                                                                                                                                                                                                                                                                                                                                                              
  8.000000E+02  1.250000E+02 -5.425000E+03  3.976448E-09  1.400596E-09 -3.391242E-10  3.706139E-09  2.222630E-11  7.948431E-12 -1.924544E-12  2.066705E-11  0.000000E+00  0.000000E+00  0.000000E+00  0.000000E+00  0.000000E+00  0.000000E+00  0.000000E+00  0.000000E+00  4.654940E-03  1.639576E-03 -3.969916E-04  4.338509E-03                                                                                                                                                                                                                                                                                                                                                                                                                                                                                              
  9.350000E+02  1.250000E+02 -5.425000E+03  4.181960E-09  1.617360E-09 -3.429702E-10  3.841264E-09  2.338539E-11  9.178572E-12 -1.946369E-12  2.142059E-11  0.000000E+00  0.000000E+00  0.000000E+00  0.000000E+00  0.000000E+00  0.000000E+00  0.000000E+00  0.000000E+00  4.895501E-03  1.893322E-03 -4.014915E-04  4.496673E-03                                                                                                                                                                                                                                                                                                                                                                                                                                                                                              
  1.185000E+03  1.250000E+02 -5.425000E+03  4.395034E-09  1.506521E-09 -3.218463E-10  4.116204E-09  2.456243E-11  8.549558E-12 -1.826490E-12  2.295390E-11  0.000000E+00  0.000000E+00  0.000000E+00  0.000000E+00  0.000000E+00  0.000000E+00  0.000000E+00  0.000000E+00  5.144902E-03  1.763564E-03 -3.767591E-04  4.818497E-03                                                                                                                                                                                                                                                                                                                                                                                                                                                                                              
  1.435000E+03  1.250000E+02 -5.425000E+03  4.335773E-09  6.056839E-10 -2.899892E-10  4.283454E-09  2.418880E-11  3.437280E-12 -1.645701E-12  2.388671E-11  0.000000E+00  0.000000E+00  0.000000E+00  0.000000E+00  0.000000E+00  0.000000E+00  0.000000E+00  0.000000E+00  5.075522E-03  7.090236E-04 -3.394655E-04  5.014277E-03                                                                                                                                                                                                                                                                                                                                                                                                                                                                                              
  1.250000E+02  1.250000E+02 -5.225000E+03  8.835897E-09 -3.628246E-10 -3.390541E-10  8.821932E-09  4.864821E-11 -1.988047E-12 -1.857801E-12  4.857206E-11  0.000000E+00  0.000000E+00  0.000000E+00  0.000000E+00  0.000000E+00  0.000000E+00  0.000000E+00  0.000000E+00  9.765600E-03 -3.811051E-04 -3.561372E-04  9.751660E-03                                                                                                                                                                                                                                                                                                                                                                                                                                                                                              
  3.750000E+02  1.250000E+02 -5.225000E+03  7.912417E-09 -5.393834E-10 -4.060733E-10  7.883560E-09  4.358883E-11 -2.955477E-12 -2.225020E-12  4.343156E-11  0.000000E+00  0.000000E+00  0.000000E+00  0.000000E+00  0.000000E+00  0.000000E+00  0.000000E+00  0.000000E+00  8.767465E-03 -5.665604E-04 -4.265347E-04  8.738737E-03                                                                                                                                                                                                                                                                                                                                                                                                                                                                                              
  6.250000E+02  1.250000E+02 -5.225000E+03  6.800691E-09  5.303699E-10 -4.496811E-10  6.765050E-09  3.750340E-11  2.906091E-12 -2.463969E-12  3.730937E-11  0.000000E+00  0.000000E+00  0.000000E+00  0.000000E+00  0.000000E+00  0.000000E+00  0.000000E+00  0.000000E+00  7.571430E-03  5.570942E-04 -4.723480E-04  7.536119E-03                                                                                                                                                                                                                                                                                                                                                                                                                                                                                              
  7.600000E+02  1.250000E+02 -5.225000E+03  7.298901E-09  1.470648E-09 -4.580770E-10  7.134516E-09  4.022904E-11  8.058223E-12 -2.509975E-12  3.933371E-11  0.000000E+00  0.000000E+00  0.000000E+00  0.000000E+00  0.000000E+00  0.000000E+00  0.000000E+00  0.000000E+00  8.098678E-03  1.544753E-03 -4.811646E-04  7.935414E-03                                                                                                                                                                                                                                                                                                                                                                                                                                                                                              
  7.800000E+02  1.250000E+02 -5.225000E+03  7.392952E-09  1.581081E-09 -4.590136E-10  7.207303E-09  4.074347E-11  8.663335E-12 -2.515107E-12  3.973225E-11  0.000000E+00  0.000000E+00  0.000000E+00  0.000000E+00  0.000000E+00  0.000000E+00  0.000000E+00  0.000000E+00  8.198279E-03  1.660754E-03 -4.821479E-04  8.013814E-03                                                                                                                                                                                                                                                                                                                                                                                                                                                                                              
  8.000000E+02  1.250000E+02 -5.225000E+03  7.555192E-09  1.679930E-09 -4.596473E-10  7.351700E-09  4.163014E-11  9.204974E-12 -2.518581E-12  4.052153E-11  0.000000E+00  0.000000E+00  0.000000E+00  0.000000E+00  0.000000E+00  0.000000E+00  0.000000E+00  0.000000E+00  8.370159E-03  1.764586E-03 -4.828134E-04  8.167784E-03                                                                                                                                                                                                                                                                                                                                                                                                                                                                                              
  9.350000E+02  1.250000E+02 -5.225000E+03  8.239657E-09  1.912134E-09 -4.597518E-10  8.001520E-09  4.537666E-11  1.047735E-11 -2.519158E-12  4.407857E-11  0.000000E+00  0.000000E+00  0.000000E+00  0.000000E+00  0.000000E+00  0.000000E+00  0.000000E+00  0.000000E+00  9.104062E-03  2.008500E-03 -4.829213E-04  8.866604E-03                                                                                                                                                                                                                                                                                                                                                                                                                                                                                              
  1.185000E+03  1.250000E+02 -5.225000E+03  9.221342E-09  1.737404E-09 -4.039552E-10  9.047176E-09  5.075996E-11  9.520002E-12 -2.213445E-12  4.981008E-11  0.000000E+00  0.000000E+00  0.000000E+00  0.000000E+00  0.000000E+00  0.000000E+00  0.000000E+00  0.000000E+00  1.017216E-02  1.824986E-03 -4.243167E-04  9.998115E-03                                                                                                                                                                                                                                                                                                                                                                                                                                                                                              
  1.435000E+03  1.250000E+02 -5.225000E+03  9.665832E-09  6.878374E-10 -3.301502E-10  9.635673E-09  5.320222E-11  3.768989E-12 -1.809053E-12  5.303771E-11  0.000000E+00  0.000000E+00  0.000000E+00  0.000000E+00  0.000000E+00  0.000000E+00  0.000000E+00  0.000000E+00  1.066669E-02  7.225218E-04 -3.467999E-04  1.063653E-02                                                                                                                                                                                                                                                                                                                                                                                                                                                                                              
  1.250000E+02  1.250000E+02 -4.975000E+03  1.127136E-08 -1.006467E-09 -6.052834E-10  1.121001E-08  6.092604E-11 -5.443441E-12 -3.273679E-12  6.059401E-11  0.000000E+00  0.000000E+00  0.000000E+00  0.000000E+00  0.000000E+00  0.000000E+00  0.000000E+00  0.000000E+00  1.151894E-02 -1.007575E-03 -6.059789E-04  1.145877E-02                                                                                                                                                                                                                                                                                                                                                                                                                                                                                              
  3.750000E+02  1.250000E+02 -4.975000E+03  9.271849E-09 -1.962087E-09 -8.957436E-10  9.017485E-09  5.011671E-11 -1.061168E-11 -4.844463E-12  4.874021E-11  0.000000E+00  0.000000E+00  0.000000E+00  0.000000E+00  0.000000E+00  0.000000E+00  0.000000E+00  0.000000E+00  9.477427E-03 -1.964065E-03 -8.966374E-04  9.228224E-03                                                                                                                                                                                                                                                                                                                                                                                                                                                                                              
  6.250000E+02  1.250000E+02 -4.975000E+03  5.393640E-09  2.259198E-10 -1.031857E-09  5.289195E-09  2.919907E-11  1.221658E-12 -5.580270E-12  2.863483E-11  0.000000E+00  0.000000E+00  0.000000E+00  0.000000E+00  0.000000E+00  0.000000E+00  0.000000E+00  0.000000E+00  5.553258E-03  2.261252E-04 -1.032650E-03  5.451713E-03                                                                                                                                                                                                                                                                                                                                                                                                                                                                                              
  7.600000E+02  1.250000E+02 -4.975000E+03  5.974755E-09  2.581048E-09 -1.059780E-09  5.283252E-09  3.235915E-11  1.395859E-11 -5.731278E-12  2.862559E-11  0.000000E+00  0.000000E+00  0.000000E+00  0.000000E+00  0.000000E+00  0.000000E+00  0.000000E+00  0.000000E+00  6.132226E-03  2.583392E-03 -1.060578E-03  5.459438E-03                                                                                                                                                                                                                                                                                                                                                                                                                                                                                              
  7.800000E+02  1.250000E+02 -4.975000E+03  6.229874E-09  3.021731E-09 -1.065245E-09  5.342819E-09  3.373947E-11  1.634205E-11 -5.760847E-12  2.894999E-11  0.000000E+00  0.000000E+00  0.000000E+00  0.000000E+00  0.000000E+00  0.000000E+00  0.000000E+00  0.000000E+00  6.385533E-03  3.024479E-03 -1.066066E-03  5.521871E-03                                                                                                                                                                                                                                                                                                                                                                                                                                                                                              
  8.000000E+02  1.250000E+02 -4.975000E+03  8.372093E-09  3.305944E-09 -1.072812E-09  7.616545E-09  4.526345E-11  1.787958E-11 -5.801910E-12  4.117570E-11  0.000000E+00  0.000000E+00  0.000000E+00  0.000000E+00  0.000000E+00  0.000000E+00  0.000000E+00  0.000000E+00  8.544737E-03  3.309189E-03 -1.073677E-03  7.804423E-03                                                                                                                                                                                                                                                                                                                                                                                                                                                                                              
  9.350000E+02  1.250000E+02 -4.975000E+03  1.003280E-08  3.391439E-09 -1.062131E-09  9.382273E-09  5.423351E-11  1.834256E-11 -5.744409E-12  5.071317E-11  0.000000E+00  0.000000E+00  0.000000E+00  0.000000E+00  0.000000E+00  0.000000E+00  0.000000E+00  0.000000E+00  1.023611E-02  3.395164E-03 -1.063220E-03  9.597941E-03                                                                                                                                                                                                                                                                                                                                                                                                                                                                                              
  1.185000E+03  1.250000E+02 -4.975000E+03  1.174695E-08  2.736786E-09 -8.264229E-10  1.139376E-08  6.351367E-11  1.480231E-11 -4.469801E-12  6.160275E-11  0.000000E+00  0.000000E+00  0.000000E+00  0.000000E+00  0.000000E+00  0.000000E+00  0.000000E+00  0.000000E+00  1.199704E-02  2.740051E-03 -8.273955E-04  1.165060E-02                                                                                                                                                                                                                                                                                                                                                                                                                                                                                              
  1.435000E+03  1.250000E+02 -4.975000E+03  1.232135E-08  1.029068E-09 -5.059306E-10  1.226787E-08  6.663375E-11  5.565980E-12 -2.736471E-12  6.634447E-11  0.000000E+00  0.000000E+00  0.000000E+00  0.000000E+00  0.000000E+00  0.000000E+00  0.000000E+00  0.000000E+00  1.259973E-02  1.030373E-03 -5.065863E-04  1.254731E-02                                                                                                                                                                                                                                                                                                                                                                                                                                                                                              
  1.250000E+02  1.250000E+02 -4.725000E+03  1.368431E-08 -4.968426E-10 -2.941205E-10  1.367213E-08  7.110403E-11 -2.650028E-12 -1.569302E-12  7.103730E-11  0.000000E+00  0.000000E+00  0.000000E+00  0.000000E+00  0.000000E+00  0.000000E+00  0.000000E+00  0.000000E+00  1.332036E-02 -4.689567E-04 -2.784136E-04  1.330919E-02                                                                                                                                                                                                                                                                                                                                                                                                                                                                                              
  3.750000E+02  1.250000E+02 -4.725000E+03  1.029598E-08 -9.228953E-10 -4.030755E-10  1.024661E-08  5.351675E-11 -4.918546E-12 -2.146852E-12  5.324699E-11  0.000000E+00  0.000000E+00  0.000000E+00  0.000000E+00  0.000000E+00  0.000000E+00  0.000000E+00  0.000000E+00  9.999248E-03 -8.674872E-04 -3.780513E-04  9.954372E-03                                                                                                                                                                                                                                                                                                                                                                                                                                                                                              
  6.250000E+02  1.250000E+02 -4.725000E+03  3.557722E-09  1.137076E-10 -2.890185E-10  3.544139E-09  1.860226E-11  6.022647E-13 -1.535708E-12  1.852898E-11  0.000000E+00  0.000000E+00  0.000000E+00  0.000000E+00  0.000000E+00  0.000000E+00  0.000000E+00  0.000000E+00  3.464910E-03  1.063623E-04 -2.681736E-04  3.452879E-03                                                                                                                                                                                                                                                                                                                                                                                                                                                                                              
  7.600000E+02  1.250000E+02 -4.725000E+03  3.037563E-09  1.178516E-09 -3.589178E-10  2.776521E-09  1.597933E-11  6.268216E-12 -1.907369E-12  1.457431E-11  0.000000E+00  0.000000E+00  0.000000E+00  0.000000E+00  0.000000E+00  0.000000E+00  0.000000E+00  0.000000E+00  2.950580E-03  1.102477E-03 -3.333516E-04  2.716495E-03                                                                                                                                                                                                                                                                                                                                                                                                                                                                                              
  7.800000E+02  1.250000E+02 -4.725000E+03  3.105554E-09  1.379697E-09 -3.734826E-10  2.757066E-09  1.635363E-11  7.341374E-12 -1.984934E-12  1.447776E-11  0.000000E+00  0.000000E+00  0.000000E+00  0.000000E+00  0.000000E+00  0.000000E+00  0.000000E+00  0.000000E+00  3.011560E-03  1.290883E-03 -3.470659E-04  2.698640E-03                                                                                                                                                                                                                                                                                                                                                                                                                                                                                              
  8.000000E+02  1.250000E+02 -4.725000E+03  8.181632E-09  1.507735E-09 -3.921186E-10  8.031942E-09  4.257363E-11  8.030725E-12 -2.085791E-12  4.175728E-11  0.000000E+00  0.000000E+00  0.000000E+00  0.000000E+00  0.000000E+00  0.000000E+00  0.000000E+00  0.000000E+00  7.933433E-03  1.415073E-03 -3.647918E-04  7.797682E-03                                                                                                                                                                                                                                                                                                                                                                                                                                                                                              
  9.350000E+02  1.250000E+02 -4.725000E+03  1.104284E-08  1.590449E-09 -4.999555E-10  1.091626E-08  5.741852E-11  8.482156E-12 -2.663645E-12  5.672604E-11  0.000000E+00  0.000000E+00  0.000000E+00  0.000000E+00  0.000000E+00  0.000000E+00  0.000000E+00  0.000000E+00  1.072865E-02  1.500670E-03 -4.691525E-04  1.061281E-02                                                                                                                                                                                                                                                                                                                                                                                                                                                                                              
  1.185000E+03  1.250000E+02 -4.725000E+03  1.375935E-08  1.359915E-09 -4.398409E-10  1.368492E-08  7.154415E-11  7.259873E-12 -2.347363E-12  7.113613E-11  0.000000E+00  0.000000E+00  0.000000E+00  0.000000E+00  0.000000E+00  0.000000E+00  0.000000E+00  0.000000E+00  1.340736E-02  1.288843E-03 -4.162150E-04  1.333877E-02                                                                                                                                                                                                                                                                                                                                                                                                                                                                                              