Title="TOUGHREACT V3.30-OMP flowvector.tec: Liq & Gas Fluxes (kg/s/m^2), Pore Velocities (m/s), & Heat Fluxes (J/s/m2)"                                                                                                                                                                                                                                                                                                                                                                                                                                                                                                                                                                                                                                                                                                         
Variables= "X(m)"     "Y(m)"      "Z(m)"     "FluxLiq"   "FluxLiq_X"   "FluxLiq_Y"   "FluxLiq_Z"   "PorVelLiq"  "PorVelLiqX"  "PorVelLiqY"  "PorVelLiqZ"     "FluxGas"   "FluxGas_X"   "FluxGas_Y"   "FluxGas_Z"   "PorVelGas"  "PorVelGasX"  "PorVelGasY"  "PorVelGasZ"    "HeatFlux"  "HeatFlux_X"  "HeatFlux_Y"  "HeatFlux_Z"                                                                                                                                                                                                                                                                                                                                                                                                                                                                                                
Zone T= "4.33000000E+10 sec" I=     9 J=    10 K=    23 F=Point
  1.250000E+02  1.250000E+02 -5.425000E+03  3.835482E-09 -1.538852E-10 -2.764583E-10  3.822409E-09  2.125640E-11 -8.621065E-13 -1.548792E-12  2.118237E-11  0.000000E+00  0.000000E+00  0.000000E+00  0.000000E+00  0.000000E+00  0.000000E+00  0.000000E+00  0.000000E+00  4.327618E-03 -1.736319E-04 -3.119322E-04  4.312868E-03                                                                                                                                                                                                                                                                                                                                                                                                                                                                                              
  3.750000E+02  1.250000E+02 -5.425000E+03  3.621272E-09 -7.328479E-11 -3.068755E-10  3.607502E-09  2.006946E-11 -4.105598E-13 -1.719202E-12  1.999148E-11  0.000000E+00  0.000000E+00  0.000000E+00  0.000000E+00  0.000000E+00  0.000000E+00  0.000000E+00  0.000000E+00  4.085956E-03 -8.268875E-05 -3.462565E-04  4.070419E-03                                                                                                                                                                                                                                                                                                                                                                                                                                                                                              
  6.250000E+02  1.250000E+02 -5.425000E+03  3.500764E-09  7.770193E-10 -3.373371E-10  3.396733E-09  1.941255E-11  4.353090E-12 -1.889864E-12  1.882355E-11  0.000000E+00  0.000000E+00  0.000000E+00  0.000000E+00  0.000000E+00  0.000000E+00  0.000000E+00  0.000000E+00  3.950022E-03  8.767343E-04 -3.806323E-04  3.832640E-03                                                                                                                                                                                                                                                                                                                                                                                                                                                                                              
  7.600000E+02  1.250000E+02 -5.425000E+03  3.795283E-09  1.430130E-09 -3.558645E-10  3.497465E-09  2.106705E-11  8.012011E-12 -1.993660E-12  1.938178E-11  0.000000E+00  0.000000E+00  0.000000E+00  0.000000E+00  0.000000E+00  0.000000E+00  0.000000E+00  0.000000E+00  4.282326E-03  1.613658E-03 -4.015358E-04  3.946289E-03                                                                                                                                                                                                                                                                                                                                                                                                                                                                                              
  7.800000E+02  1.250000E+02 -5.425000E+03  3.839223E-09  1.502609E-09 -3.585485E-10  3.514718E-09  2.131355E-11  8.418060E-12 -2.008697E-12  1.947740E-11  0.000000E+00  0.000000E+00  0.000000E+00  0.000000E+00  0.000000E+00  0.000000E+00  0.000000E+00  0.000000E+00  4.331903E-03  1.695436E-03 -4.045640E-04  3.965754E-03                                                                                                                                                                                                                                                                                                                                                                                                                                                                                              
  8.000000E+02  1.250000E+02 -5.425000E+03  3.884835E-09  1.570503E-09 -3.611575E-10  3.534831E-09  2.156918E-11  8.798422E-12 -2.023312E-12  1.958886E-11  0.000000E+00  0.000000E+00  0.000000E+00  0.000000E+00  0.000000E+00  0.000000E+00  0.000000E+00  0.000000E+00  4.383366E-03  1.772042E-03 -4.075074E-04  3.988446E-03                                                                                                                                                                                                                                                                                                                                                                                                                                                                                              
  9.350000E+02  1.250000E+02 -5.425000E+03  4.107845E-09  1.791173E-09 -3.781272E-10  3.677378E-09  2.281399E-11  1.003468E-11 -2.118381E-12  2.037881E-11  0.000000E+00  0.000000E+00  0.000000E+00  0.000000E+00  0.000000E+00  0.000000E+00  0.000000E+00  0.000000E+00  4.634977E-03  2.021025E-03 -4.266524E-04  4.149270E-03                                                                                                                                                                                                                                                                                                                                                                                                                                                                                              
  1.185000E+03  1.250000E+02 -5.425000E+03  4.334252E-09  1.662642E-09 -3.856080E-10  3.984052E-09  2.405999E-11  9.314612E-12 -2.160291E-12  2.207837E-11  0.000000E+00  0.000000E+00  0.000000E+00  0.000000E+00  0.000000E+00  0.000000E+00  0.000000E+00  0.000000E+00  4.890409E-03  1.875992E-03 -4.350884E-04  4.495270E-03                                                                                                                                                                                                                                                                                                                                                                                                                                                                                              
  1.435000E+03  1.250000E+02 -5.425000E+03  4.261218E-09  6.730742E-10 -3.746080E-10  4.191017E-09  2.362292E-11  3.770765E-12 -2.098668E-12  2.322541E-11  0.000000E+00  0.000000E+00  0.000000E+00  0.000000E+00  0.000000E+00  0.000000E+00  0.000000E+00  0.000000E+00  4.807995E-03  7.594405E-04 -4.226752E-04  4.728786E-03                                                                                                                                                                                                                                                                                                                                                                                                                                                                                              
  1.250000E+02  1.250000E+02 -5.225000E+03  8.251927E-09 -3.183717E-10 -3.409575E-10  8.238730E-09  4.530633E-11 -1.744390E-12 -1.868137E-12  4.523418E-11  0.000000E+00  0.000000E+00  0.000000E+00  0.000000E+00  0.000000E+00  0.000000E+00  0.000000E+00  0.000000E+00  8.964020E-03 -3.343381E-04 -3.580541E-04  8.950624E-03                                                                                                                                                                                                                                                                                                                                                                                                                                                                                              
  3.750000E+02  1.250000E+02 -5.225000E+03  7.354444E-09 -4.110842E-10 -4.092898E-10  7.331530E-09  4.039803E-11 -2.252372E-12 -2.242543E-12  4.027281E-11  0.000000E+00  0.000000E+00  0.000000E+00  0.000000E+00  0.000000E+00  0.000000E+00  0.000000E+00  0.000000E+00  8.004423E-03 -4.317017E-04 -4.298212E-04  7.981207E-03                                                                                                                                                                                                                                                                                                                                                                                                                                                                                              
  6.250000E+02  1.250000E+02 -5.225000E+03  6.334246E-09  7.230947E-10 -4.600954E-10  6.275996E-09  3.482198E-11  3.961931E-12 -2.520930E-12  3.450389E-11  0.000000E+00  0.000000E+00  0.000000E+00  0.000000E+00  0.000000E+00  0.000000E+00  0.000000E+00  0.000000E+00  6.915175E-03  7.593709E-04 -4.831906E-04  6.856349E-03                                                                                                                                                                                                                                                                                                                                                                                                                                                                                              
  7.600000E+02  1.250000E+02 -5.225000E+03  6.907675E-09  1.690243E-09 -4.867113E-10  6.679982E-09  3.795746E-11  9.261064E-12 -2.666761E-12  3.671362E-11  0.000000E+00  0.000000E+00  0.000000E+00  0.000000E+00  0.000000E+00  0.000000E+00  0.000000E+00  0.000000E+00  7.518885E-03  1.775037E-03 -5.111373E-04  7.288458E-03                                                                                                                                                                                                                                                                                                                                                                                                                                                                                              
  7.800000E+02  1.250000E+02 -5.225000E+03  7.011830E-09  1.804331E-09 -4.904928E-10  6.757926E-09  3.852689E-11  9.886175E-12 -2.687480E-12  3.713976E-11  0.000000E+00  0.000000E+00  0.000000E+00  0.000000E+00  0.000000E+00  0.000000E+00  0.000000E+00  0.000000E+00  7.628702E-03  1.894846E-03 -5.151078E-04  7.371656E-03                                                                                                                                                                                                                                                                                                                                                                                                                                                                                              
  8.000000E+02  1.250000E+02 -5.225000E+03  7.182935E-09  1.906791E-09 -4.940972E-10  6.907573E-09  3.946158E-11  1.044757E-11 -2.707229E-12  3.795702E-11  0.000000E+00  0.000000E+00  0.000000E+00  0.000000E+00  0.000000E+00  0.000000E+00  0.000000E+00  0.000000E+00  7.809336E-03  2.002446E-03 -5.188922E-04  7.530384E-03                                                                                                                                                                                                                                                                                                                                                                                                                                                                                              
  9.350000E+02  1.250000E+02 -5.225000E+03  7.911746E-09  2.162198E-09 -5.149660E-10  7.593118E-09  4.344621E-11  1.184699E-11 -2.821571E-12  4.170445E-11  0.000000E+00  0.000000E+00  0.000000E+00  0.000000E+00  0.000000E+00  0.000000E+00  0.000000E+00  0.000000E+00  8.584852E-03  2.270663E-03 -5.408019E-04  8.261435E-03                                                                                                                                                                                                                                                                                                                                                                                                                                                                                              
  1.185000E+03  1.250000E+02 -5.225000E+03  9.024190E-09  1.985252E-09 -5.024900E-10  8.788758E-09  4.953352E-11  1.087753E-11 -2.753223E-12  4.824592E-11  0.000000E+00  0.000000E+00  0.000000E+00  0.000000E+00  0.000000E+00  0.000000E+00  0.000000E+00  0.000000E+00  9.780411E-03  2.084846E-03 -5.276953E-04  9.541037E-03                                                                                                                                                                                                                                                                                                                                                                                                                                                                                              
  1.435000E+03  1.250000E+02 -5.225000E+03  9.620247E-09  7.999499E-10 -4.605207E-10  9.575863E-09  5.279579E-11  4.383078E-12 -2.523283E-12  5.255299E-11  0.000000E+00  0.000000E+00  0.000000E+00  0.000000E+00  0.000000E+00  0.000000E+00  0.000000E+00  0.000000E+00  1.042904E-02  8.400848E-04 -4.836261E-04  1.038390E-02                                                                                                                                                                                                                                                                                                                                                                                                                                                                                              
  1.250000E+02  1.250000E+02 -4.975000E+03  1.038748E-08 -9.587939E-10 -6.057829E-10  1.032538E-08  5.614720E-11 -5.185512E-12 -3.276316E-12  5.581115E-11  0.000000E+00  0.000000E+00  0.000000E+00  0.000000E+00  0.000000E+00  0.000000E+00  0.000000E+00  0.000000E+00  1.061385E-02 -9.597310E-04 -6.063967E-04  1.055296E-02                                                                                                                                                                                                                                                                                                                                                                                                                                                                                              
  3.750000E+02  1.250000E+02 -4.975000E+03  8.400195E-09 -1.807771E-09 -8.914368E-10  8.154789E-09  4.540706E-11 -9.776941E-12 -4.821109E-12  4.407913E-11  0.000000E+00  0.000000E+00  0.000000E+00  0.000000E+00  0.000000E+00  0.000000E+00  0.000000E+00  0.000000E+00  8.586250E-03 -1.809397E-03 -8.922308E-04  8.345879E-03                                                                                                                                                                                                                                                                                                                                                                                                                                                                                              
  6.250000E+02  1.250000E+02 -4.975000E+03  4.640939E-09  4.976453E-10 -1.016765E-09  4.500761E-09  2.513639E-11  2.691181E-12 -5.498632E-12  2.437952E-11  0.000000E+00  0.000000E+00  0.000000E+00  0.000000E+00  0.000000E+00  0.000000E+00  0.000000E+00  0.000000E+00  4.782624E-03  4.980492E-04 -1.017474E-03  4.646524E-03                                                                                                                                                                                                                                                                                                                                                                                                                                                                                              
  7.600000E+02  1.250000E+02 -4.975000E+03  5.550287E-09  2.916285E-09 -1.094988E-09  4.593688E-09  3.006582E-11  1.577144E-11 -5.921646E-12  2.490279E-11  0.000000E+00  0.000000E+00  0.000000E+00  0.000000E+00  0.000000E+00  0.000000E+00  0.000000E+00  0.000000E+00  5.685422E-03  2.918634E-03 -1.095728E-03  4.754470E-03                                                                                                                                                                                                                                                                                                                                                                                                                                                                                              
  7.800000E+02  1.250000E+02 -4.975000E+03  5.863755E-09  3.367002E-09 -1.108706E-09  4.670941E-09  3.176073E-11  1.820915E-11 -5.995847E-12  2.532234E-11  0.000000E+00  0.000000E+00  0.000000E+00  0.000000E+00  0.000000E+00  0.000000E+00  0.000000E+00  0.000000E+00  5.996745E-03  3.369703E-03 -1.109469E-03  4.834783E-03                                                                                                                                                                                                                                                                                                                                                                                                                                                                                              
  8.000000E+02  1.250000E+02 -4.975000E+03  7.937089E-09  3.661990E-09 -1.125289E-09  6.951327E-09  4.291505E-11  1.980496E-11 -6.085665E-12  3.758231E-11  0.000000E+00  0.000000E+00  0.000000E+00  0.000000E+00  0.000000E+00  0.000000E+00  0.000000E+00  0.000000E+00  8.090203E-03  3.665185E-03 -1.126096E-03  7.123883E-03                                                                                                                                                                                                                                                                                                                                                                                                                                                                                              
  9.350000E+02  1.250000E+02 -4.975000E+03  9.697527E-09  3.835298E-09 -1.179345E-09  8.828458E-09  5.242148E-11  2.074286E-11 -6.378270E-12  4.771858E-11  0.000000E+00  0.000000E+00  0.000000E+00  0.000000E+00  0.000000E+00  0.000000E+00  0.000000E+00  0.000000E+00  9.882857E-03  3.839060E-03 -1.180430E-03  9.029898E-03                                                                                                                                                                                                                                                                                                                                                                                                                                                                                              
  1.185000E+03  1.250000E+02 -4.975000E+03  1.178284E-08  3.272288E-09 -1.065378E-09  1.126909E-08  6.370165E-11  1.769831E-11 -5.762104E-12  6.092182E-11  0.000000E+00  0.000000E+00  0.000000E+00  0.000000E+00  0.000000E+00  0.000000E+00  0.000000E+00  0.000000E+00  1.202156E-02  3.275754E-03 -1.066488E-03  1.151738E-02                                                                                                                                                                                                                                                                                                                                                                                                                                                                                              
  1.435000E+03  1.250000E+02 -4.975000E+03  1.292912E-08  1.301639E-09 -8.390604E-10  1.283604E-08  6.990375E-11  7.040094E-12 -4.538193E-12  6.940011E-11  0.000000E+00  0.000000E+00  0.000000E+00  0.000000E+00  0.000000E+00  0.000000E+00  0.000000E+00  0.000000E+00  1.320652E-02  1.303094E-03 -8.400168E-04  1.311520E-02                                                                                                                                                                                                                                                                                                                                                                                                                                                                                              
  1.250000E+02  1.250000E+02 -4.725000E+03  1.253382E-08 -4.692497E-10 -2.974143E-10  1.252150E-08  6.513383E-11 -2.502777E-12 -1.586823E-12  6.506638E-11  0.000000E+00  0.000000E+00  0.000000E+00  0.000000E+00  0.000000E+00  0.000000E+00  0.000000E+00  0.000000E+00  1.219955E-02 -4.428337E-04 -2.814752E-04  1.218826E-02                                                                                                                                                                                                                                                                                                                                                                                                                                                                                              
  3.750000E+02  1.250000E+02 -4.725000E+03  9.101745E-09 -8.047974E-10 -3.976416E-10  9.057370E-09  4.732955E-11 -4.289374E-12 -2.117869E-12  4.708717E-11  0.000000E+00  0.000000E+00  0.000000E+00  0.000000E+00  0.000000E+00  0.000000E+00  0.000000E+00  0.000000E+00  8.841585E-03 -7.566786E-04 -3.729092E-04  8.801250E-03                                                                                                                                                                                                                                                                                                                                                                                                                                                                                              
  6.250000E+02  1.250000E+02 -4.725000E+03  2.322601E-09  4.866556E-10 -2.520358E-10  2.257016E-09  1.224636E-11  2.586386E-12 -1.339258E-12  1.189497E-11  0.000000E+00  0.000000E+00  0.000000E+00  0.000000E+00  0.000000E+00  0.000000E+00  0.000000E+00  0.000000E+00  2.275524E-03  4.551792E-04 -2.339325E-04  2.217227E-03                                                                                                                                                                                                                                                                                                                                                                                                                                                                                              
  7.600000E+02  1.250000E+02 -4.725000E+03  2.282544E-09  1.791267E-09 -4.427194E-10  1.343641E-09  1.218937E-11  9.527270E-12 -2.352813E-12  7.230224E-12  0.000000E+00  0.000000E+00  0.000000E+00  0.000000E+00  0.000000E+00  0.000000E+00  0.000000E+00  0.000000E+00  2.212613E-03  1.675559E-03 -4.113111E-04  1.385274E-03                                                                                                                                                                                                                                                                                                                                                                                                                                                                                              
  7.800000E+02  1.250000E+02 -4.725000E+03  2.523961E-09  2.091702E-09 -4.798769E-10  1.328488E-09  1.347719E-11  1.112993E-11 -2.550489E-12  7.159213E-12  0.000000E+00  0.000000E+00  0.000000E+00  0.000000E+00  0.000000E+00  0.000000E+00  0.000000E+00  0.000000E+00  2.440950E-03  1.956910E-03 -4.460602E-04  1.389163E-03                                                                                                                                                                                                                                                                                                                                                                                                                                                                                              
  8.000000E+02  1.250000E+02 -4.725000E+03  7.684203E-09  2.267717E-09 -5.261755E-10  7.323085E-09  4.003034E-11  1.207846E-11 -2.798955E-12  3.806186E-11  0.000000E+00  0.000000E+00  0.000000E+00  0.000000E+00  0.000000E+00  0.000000E+00  0.000000E+00  0.000000E+00  7.434153E-03  2.128102E-03 -4.896079E-04  7.106201E-03                                                                                                                                                                                                                                                                                                                                                                                                                                                                                              
  9.350000E+02  1.250000E+02 -4.725000E+03  1.067479E-08  2.538713E-09 -8.290207E-10  1.033532E-08  5.556140E-11  1.353962E-11 -4.416745E-12  5.370512E-11  0.000000E+00  0.000000E+00  0.000000E+00  0.000000E+00  0.000000E+00  0.000000E+00  0.000000E+00  0.000000E+00  1.035564E-02  2.395387E-03 -7.778555E-04  1.004471E-02                                                                                                                                                                                                                                                                                                                                                                                                                                                                                              
  1.185000E+03  1.250000E+02 -4.725000E+03  1.437388E-08  2.717710E-09 -1.140621E-09  1.406846E-08  7.477164E-11  1.450931E-11 -6.087145E-12  7.309737E-11  0.000000E+00  0.000000E+00  0.000000E+00  0.000000E+00  0.000000E+00  0.000000E+00  0.000000E+00  0.000000E+00  1.398296E-02  2.576510E-03 -1.079168E-03  1.370110E-02                                                                                                                                                                                                                                                                                                                                                                                                                                                                                              