Title="TOUGHREACT V3.30-OMP flowvector.tec: Liq & Gas Fluxes (kg/s/m^2), Pore Velocities (m/s), & Heat Fluxes (J/s/m2)"                                                                                                                                                                                                                                                                                                                                                                                                                                                                                                                                                                                                                                                                                                         
Variables= "X(m)"     "Y(m)"      "Z(m)"     "FluxLiq"   "FluxLiq_X"   "FluxLiq_Y"   "FluxLiq_Z"   "PorVelLiq"  "PorVelLiqX"  "PorVelLiqY"  "PorVelLiqZ"     "FluxGas"   "FluxGas_X"   "FluxGas_Y"   "FluxGas_Z"   "PorVelGas"  "PorVelGasX"  "PorVelGasY"  "PorVelGasZ"    "HeatFlux"  "HeatFlux_X"  "HeatFlux_Y"  "HeatFlux_Z"                                                                                                                                                                                                                                                                                                                                                                                                                                                                                                
Zone T= "8.00000000E+10 sec" I=     9 J=    10 K=    23 F=Point
  1.250000E+02  1.250000E+02 -5.425000E+03  4.026877E-09 -2.000121E-10 -2.777691E-10  4.012303E-09  2.242739E-11 -1.131872E-12 -1.571898E-12  2.234358E-11  0.000000E+00  0.000000E+00  0.000000E+00  0.000000E+00  0.000000E+00  0.000000E+00  0.000000E+00  0.000000E+00  4.677296E-03 -2.323198E-04 -3.226354E-04  4.660368E-03                                                                                                                                                                                                                                                                                                                                                                                                                                                                                              
  3.750000E+02  1.250000E+02 -5.425000E+03  3.804995E-09 -1.971310E-10 -3.059666E-10  3.787547E-09  2.119232E-11 -1.115567E-12 -1.731472E-12  2.109198E-11  0.000000E+00  0.000000E+00  0.000000E+00  0.000000E+00  0.000000E+00  0.000000E+00  0.000000E+00  0.000000E+00  4.419611E-03 -2.289733E-04 -3.553915E-04  4.399345E-03                                                                                                                                                                                                                                                                                                                                                                                                                                                                                              
  6.250000E+02  1.250000E+02 -5.425000E+03  3.625996E-09  6.115555E-10 -3.279339E-10  3.558976E-09  2.020448E-11  3.460816E-12 -1.855794E-12  1.981917E-11  0.000000E+00  0.000000E+00  0.000000E+00  0.000000E+00  0.000000E+00  0.000000E+00  0.000000E+00  0.000000E+00  4.211738E-03  7.103458E-04 -3.809124E-04  4.133890E-03                                                                                                                                                                                                                                                                                                                                                                                                                                                                                              
  7.600000E+02  1.250000E+02 -5.425000E+03  3.875304E-09  1.254024E-09 -3.347671E-10  3.651484E-09  2.162027E-11  7.096571E-12 -1.894463E-12  2.033435E-11  0.000000E+00  0.000000E+00  0.000000E+00  0.000000E+00  0.000000E+00  0.000000E+00  0.000000E+00  0.000000E+00  4.501308E-03  1.456596E-03 -3.888479E-04  4.241332E-03                                                                                                                                                                                                                                                                                                                                                                                                                                                                                              
  7.800000E+02  1.250000E+02 -5.425000E+03  3.914044E-09  1.325295E-09 -3.356541E-10  3.667515E-09  2.183990E-11  7.499901E-12 -1.899482E-12  2.042363E-11  0.000000E+00  0.000000E+00  0.000000E+00  0.000000E+00  0.000000E+00  0.000000E+00  0.000000E+00  0.000000E+00  4.546303E-03  1.539379E-03 -3.898778E-04  4.259951E-03                                                                                                                                                                                                                                                                                                                                                                                                                                                                                              
  8.000000E+02  1.250000E+02 -5.425000E+03  3.954813E-09  1.392058E-09 -3.364052E-10  3.686400E-09  2.207067E-11  7.877713E-12 -1.903732E-12  2.052880E-11  0.000000E+00  0.000000E+00  0.000000E+00  0.000000E+00  0.000000E+00  0.000000E+00  0.000000E+00  0.000000E+00  4.593655E-03  1.616925E-03 -3.907499E-04  4.281884E-03                                                                                                                                                                                                                                                                                                                                                                                                                                                                                              
  9.350000E+02  1.250000E+02 -5.425000E+03  4.158516E-09  1.606992E-09 -3.404683E-10  3.820329E-09  2.321689E-11  9.094027E-12 -1.926724E-12  2.127464E-11  0.000000E+00  0.000000E+00  0.000000E+00  0.000000E+00  0.000000E+00  0.000000E+00  0.000000E+00  0.000000E+00  4.830247E-03  1.866574E-03 -3.954670E-04  4.437431E-03                                                                                                                                                                                                                                                                                                                                                                                                                                                                                              
  1.185000E+03  1.250000E+02 -5.425000E+03  4.370297E-09  1.496636E-09 -3.200812E-10  4.093547E-09  2.438612E-11  8.469520E-12 -1.811353E-12  2.279625E-11  0.000000E+00  0.000000E+00  0.000000E+00  0.000000E+00  0.000000E+00  0.000000E+00  0.000000E+00  0.000000E+00  5.076209E-03  1.738385E-03 -3.717827E-04  4.754754E-03                                                                                                                                                                                                                                                                                                                                                                                                                                                                                              
  1.435000E+03  1.250000E+02 -5.425000E+03  4.312060E-09  6.017563E-10 -2.888449E-10  4.260084E-09  2.402263E-11  3.405365E-12 -1.634587E-12  2.372379E-11  0.000000E+00  0.000000E+00  0.000000E+00  0.000000E+00  0.000000E+00  0.000000E+00  0.000000E+00  0.000000E+00  5.008556E-03  6.989546E-04 -3.354997E-04  4.948185E-03                                                                                                                                                                                                                                                                                                                                                                                                                                                                                              
  1.250000E+02  1.250000E+02 -5.225000E+03  8.793385E-09 -3.609262E-10 -3.381860E-10  8.779464E-09  4.838250E-11 -1.977601E-12 -1.853002E-12  4.830654E-11  0.000000E+00  0.000000E+00  0.000000E+00  0.000000E+00  0.000000E+00  0.000000E+00  0.000000E+00  0.000000E+00  9.681391E-03 -3.790903E-04 -3.552052E-04  9.667443E-03                                                                                                                                                                                                                                                                                                                                                                                                                                                                                              
  3.750000E+02  1.250000E+02 -5.225000E+03  7.875658E-09 -5.353681E-10 -4.048121E-10  7.847005E-09  4.335662E-11 -2.933411E-12 -2.218062E-12  4.320037E-11  0.000000E+00  0.000000E+00  0.000000E+00  0.000000E+00  0.000000E+00  0.000000E+00  0.000000E+00  0.000000E+00  8.691737E-03 -5.623126E-04 -4.251876E-04  8.663101E-03                                                                                                                                                                                                                                                                                                                                                                                                                                                                                              
  6.250000E+02  1.250000E+02 -5.225000E+03  6.772268E-09  5.318331E-10 -4.478413E-10  6.736483E-09  3.731884E-11  2.914048E-12 -2.453838E-12  3.712389E-11  0.000000E+00  0.000000E+00  0.000000E+00  0.000000E+00  0.000000E+00  0.000000E+00  0.000000E+00  0.000000E+00  7.506940E-03  5.586025E-04 -4.703924E-04  7.471334E-03                                                                                                                                                                                                                                                                                                                                                                                                                                                                                              
  7.600000E+02  1.250000E+02 -5.225000E+03  7.268818E-09  1.469169E-09 -4.566217E-10  7.104137E-09  4.003507E-11  8.049949E-12 -2.501949E-12  3.913752E-11  0.000000E+00  0.000000E+00  0.000000E+00  0.000000E+00  0.000000E+00  0.000000E+00  0.000000E+00  0.000000E+00  8.032008E-03  1.543119E-03 -4.796119E-04  7.867777E-03                                                                                                                                                                                                                                                                                                                                                                                                                                                                                              
  7.800000E+02  1.250000E+02 -5.225000E+03  7.362505E-09  1.579270E-09 -4.576238E-10  7.176556E-09  4.054745E-11  8.653227E-12 -2.507440E-12  3.953391E-11  0.000000E+00  0.000000E+00  0.000000E+00  0.000000E+00  0.000000E+00  0.000000E+00  0.000000E+00  0.000000E+00  8.131142E-03  1.658764E-03 -4.806639E-04  7.945623E-03                                                                                                                                                                                                                                                                                                                                                                                                                                                                                              
  8.000000E+02  1.250000E+02 -5.225000E+03  7.524278E-09  1.677811E-09 -4.583284E-10  7.320495E-09  4.143145E-11  9.193170E-12 -2.511302E-12  4.032051E-11  0.000000E+00  0.000000E+00  0.000000E+00  0.000000E+00  0.000000E+00  0.000000E+00  0.000000E+00  0.000000E+00  8.302392E-03  1.762267E-03 -4.814036E-04  8.098912E-03                                                                                                                                                                                                                                                                                                                                                                                                                                                                                              
  9.350000E+02  1.250000E+02 -5.225000E+03  8.205219E-09  1.909645E-09 -4.589392E-10  7.966696E-09  4.515760E-11  1.046348E-11 -2.514651E-12  4.385660E-11  0.000000E+00  0.000000E+00  0.000000E+00  0.000000E+00  0.000000E+00  0.000000E+00  0.000000E+00  0.000000E+00  9.031286E-03  2.005776E-03 -4.820423E-04  8.792533E-03                                                                                                                                                                                                                                                                                                                                                                                                                                                                                              
  1.185000E+03  1.250000E+02 -5.225000E+03  9.183145E-09  1.735387E-09 -4.040367E-10  9.008626E-09  5.051775E-11  9.508734E-12 -2.213841E-12  4.956537E-11  0.000000E+00  0.000000E+00  0.000000E+00  0.000000E+00  0.000000E+00  0.000000E+00  0.000000E+00  0.000000E+00  1.009241E-02  1.822764E-03 -4.243780E-04  9.917372E-03                                                                                                                                                                                                                                                                                                                                                                                                                                                                                              
  1.435000E+03  1.250000E+02 -5.225000E+03  9.626536E-09  6.871776E-10 -3.309044E-10  9.596275E-09  5.295211E-11  3.765285E-12 -1.813143E-12  5.278694E-11  0.000000E+00  0.000000E+00  0.000000E+00  0.000000E+00  0.000000E+00  0.000000E+00  0.000000E+00  0.000000E+00  1.058362E-02  7.217860E-04 -3.475712E-04  1.055326E-02                                                                                                                                                                                                                                                                                                                                                                                                                                                                                              
  1.250000E+02  1.250000E+02 -4.975000E+03  1.124134E-08 -1.004316E-09 -6.044562E-10  1.118006E-08  6.076233E-11 -5.431739E-12 -3.269161E-12  6.043070E-11  0.000000E+00  0.000000E+00  0.000000E+00  0.000000E+00  0.000000E+00  0.000000E+00  0.000000E+00  0.000000E+00  1.148747E-02 -1.005396E-03 -6.051337E-04  1.142738E-02                                                                                                                                                                                                                                                                                                                                                                                                                                                                                              
  3.750000E+02  1.250000E+02 -4.975000E+03  9.248305E-09 -1.956459E-09 -8.938678E-10  8.994689E-09  4.998835E-11 -1.058111E-11 -4.834261E-12  4.861590E-11  0.000000E+00  0.000000E+00  0.000000E+00  0.000000E+00  0.000000E+00  0.000000E+00  0.000000E+00  0.000000E+00  9.452771E-03 -1.958386E-03 -8.947403E-04  9.204295E-03                                                                                                                                                                                                                                                                                                                                                                                                                                                                                              
  6.250000E+02  1.250000E+02 -4.975000E+03  5.382655E-09  2.292768E-10 -1.026856E-09  5.278823E-09  2.913892E-11  1.239802E-12 -5.553167E-12  2.857800E-11  0.000000E+00  0.000000E+00  0.000000E+00  0.000000E+00  0.000000E+00  0.000000E+00  0.000000E+00  0.000000E+00  5.541582E-03  2.294807E-04 -1.027629E-03  5.440630E-03                                                                                                                                                                                                                                                                                                                                                                                                                                                                                              
  7.600000E+02  1.250000E+02 -4.975000E+03  5.965425E-09  2.580386E-09 -1.056144E-09  5.273752E-09  3.230782E-11  1.395486E-11 -5.711554E-12  2.857333E-11  0.000000E+00  0.000000E+00  0.000000E+00  0.000000E+00  0.000000E+00  0.000000E+00  0.000000E+00  0.000000E+00  6.122140E-03  2.582675E-03 -1.056923E-03  5.449156E-03                                                                                                                                                                                                                                                                                                                                                                                                                                                                                              
  7.800000E+02  1.250000E+02 -4.975000E+03  6.220381E-09  3.020215E-09 -1.061863E-09  5.333281E-09  3.368724E-11  1.633366E-11 -5.742497E-12  2.889750E-11  0.000000E+00  0.000000E+00  0.000000E+00  0.000000E+00  0.000000E+00  0.000000E+00  0.000000E+00  0.000000E+00  6.375279E-03  3.022896E-03 -1.062663E-03  5.511536E-03                                                                                                                                                                                                                                                                                                                                                                                                                                                                                              
  8.000000E+02  1.250000E+02 -4.975000E+03  8.359041E-09  3.303814E-09 -1.069731E-09  7.603555E-09  4.519191E-11  1.786785E-11 -5.785185E-12  4.110451E-11  0.000000E+00  0.000000E+00  0.000000E+00  0.000000E+00  0.000000E+00  0.000000E+00  0.000000E+00  0.000000E+00  8.530833E-03  3.306983E-03 -1.070575E-03  7.790561E-03                                                                                                                                                                                                                                                                                                                                                                                                                                                                                              
  9.350000E+02  1.250000E+02 -4.975000E+03  1.001437E-08  3.390737E-09 -1.061386E-09  9.362900E-09  5.413272E-11  1.833853E-11 -5.740312E-12  5.060729E-11  0.000000E+00  0.000000E+00  0.000000E+00  0.000000E+00  0.000000E+00  0.000000E+00  0.000000E+00  0.000000E+00  1.021660E-02  3.394380E-03 -1.062452E-03  9.577486E-03                                                                                                                                                                                                                                                                                                                                                                                                                                                                                              
  1.185000E+03  1.250000E+02 -4.975000E+03  1.172776E-08  2.738608E-09 -8.280637E-10  1.137342E-08  6.340843E-11  1.481196E-11 -4.478615E-12  6.149127E-11  0.000000E+00  0.000000E+00  0.000000E+00  0.000000E+00  0.000000E+00  0.000000E+00  0.000000E+00  0.000000E+00  1.197653E-02  2.741799E-03 -8.290153E-04  1.162895E-02                                                                                                                                                                                                                                                                                                                                                                                                                                                                                              
  1.435000E+03  1.250000E+02 -4.975000E+03  1.230518E-08  1.030437E-09 -5.094195E-10  1.225137E-08  6.654457E-11  5.573304E-12 -2.755302E-12  6.625350E-11  0.000000E+00  0.000000E+00  0.000000E+00  0.000000E+00  0.000000E+00  0.000000E+00  0.000000E+00  0.000000E+00  1.258217E-02  1.031712E-03 -5.100634E-04  1.252942E-02                                                                                                                                                                                                                                                                                                                                                                                                                                                                                              
  1.250000E+02  1.250000E+02 -4.725000E+03  1.367182E-08 -4.960357E-10 -2.937659E-10  1.365966E-08  7.103641E-11 -2.645683E-12 -1.567385E-12  7.096982E-11  0.000000E+00  0.000000E+00  0.000000E+00  0.000000E+00  0.000000E+00  0.000000E+00  0.000000E+00  0.000000E+00  1.330742E-02 -4.681776E-04 -2.780663E-04  1.329627E-02                                                                                                                                                                                                                                                                                                                                                                                                                                                                                              
  3.750000E+02  1.250000E+02 -4.725000E+03  1.029118E-08 -9.210709E-10 -4.029946E-10  1.024195E-08  5.348935E-11 -4.908756E-12 -2.146394E-12  5.322037E-11  0.000000E+00  0.000000E+00  0.000000E+00  0.000000E+00  0.000000E+00  0.000000E+00  0.000000E+00  0.000000E+00  9.993976E-03 -8.657493E-04 -3.779658E-04  9.949229E-03                                                                                                                                                                                                                                                                                                                                                                                                                                                                                              
  6.250000E+02  1.250000E+02 -4.725000E+03  3.569741E-09  1.175341E-10 -2.925617E-10  3.555790E-09  1.866251E-11  6.226228E-13 -1.554535E-12  1.858723E-11  0.000000E+00  0.000000E+00  0.000000E+00  0.000000E+00  0.000000E+00  0.000000E+00  0.000000E+00  0.000000E+00  3.476040E-03  1.099396E-04 -2.714791E-04  3.463679E-03                                                                                                                                                                                                                                                                                                                                                                                                                                                                                              
  7.600000E+02  1.250000E+02 -4.725000E+03  3.051152E-09  1.184596E-09 -3.627194E-10  2.788314E-09  1.604883E-11  6.300497E-12 -1.927571E-12  1.463397E-11  0.000000E+00  0.000000E+00  0.000000E+00  0.000000E+00  0.000000E+00  0.000000E+00  0.000000E+00  0.000000E+00  2.963297E-03  1.108146E-03 -3.369038E-04  2.727570E-03                                                                                                                                                                                                                                                                                                                                                                                                                                                                                              
  7.800000E+02  1.250000E+02 -4.725000E+03  3.119346E-09  1.386759E-09 -3.773094E-10  2.768548E-09  1.642443E-11  7.378882E-12 -2.005271E-12  1.453592E-11  0.000000E+00  0.000000E+00  0.000000E+00  0.000000E+00  0.000000E+00  0.000000E+00  0.000000E+00  0.000000E+00  3.024473E-03  1.297471E-03 -3.506422E-04  2.709438E-03                                                                                                                                                                                                                                                                                                                                                                                                                                                                                              
  8.000000E+02  1.250000E+02 -4.725000E+03  8.195400E-09  1.515254E-09 -3.959632E-10  8.044365E-09  4.264264E-11  8.070678E-12 -2.106234E-12  4.181892E-11  0.000000E+00  0.000000E+00  0.000000E+00  0.000000E+00  0.000000E+00  0.000000E+00  0.000000E+00  0.000000E+00  7.946080E-03  1.422101E-03 -3.683834E-04  7.809104E-03                                                                                                                                                                                                                                                                                                                                                                                                                                                                                              
  9.350000E+02  1.250000E+02 -4.725000E+03  1.104630E-08  1.599382E-09 -5.036265E-10  1.091830E-08  5.743420E-11  8.529676E-12 -2.683168E-12  5.673388E-11  0.000000E+00  0.000000E+00  0.000000E+00  0.000000E+00  0.000000E+00  0.000000E+00  0.000000E+00  0.000000E+00  1.073124E-02  1.509053E-03 -4.725862E-04  1.061409E-02                                                                                                                                                                                                                                                                                                                                                                                                                                                                                              
  1.185000E+03  1.250000E+02 -4.725000E+03  1.376859E-08  1.371987E-09 -4.474760E-10  1.369276E-08  7.158922E-11  7.324219E-12 -2.388074E-12  7.117352E-11  0.000000E+00  0.000000E+00  0.000000E+00  0.000000E+00  0.000000E+00  0.000000E+00  0.000000E+00  0.000000E+00  1.341538E-02  1.300244E-03 -4.234249E-04  1.334551E-02                                                                                                                                                                                                                                                                                                                                                                                                                                                                                              