Title="TOUGHREACT V3.30-OMP flowvector.tec: Liq & Gas Fluxes (kg/s/m^2), Pore Velocities (m/s), & Heat Fluxes (J/s/m2)"                                                                                                                                                                                                                                                                                                                                                                                                                                                                                                                                                                                                                                                                                                         
Variables= "X(m)"     "Y(m)"      "Z(m)"     "FluxLiq"   "FluxLiq_X"   "FluxLiq_Y"   "FluxLiq_Z"   "PorVelLiq"  "PorVelLiqX"  "PorVelLiqY"  "PorVelLiqZ"     "FluxGas"   "FluxGas_X"   "FluxGas_Y"   "FluxGas_Z"   "PorVelGas"  "PorVelGasX"  "PorVelGasY"  "PorVelGasZ"    "HeatFlux"  "HeatFlux_X"  "HeatFlux_Y"  "HeatFlux_Z"                                                                                                                                                                                                                                                                                                                                                                                                                                                                                                
Zone T= "2.00000000E+10 sec" I=     9 J=    10 K=    23 F=Point
  1.250000E+02  1.250000E+02 -5.425000E+03  9.491558E-07  3.267189E-08 -6.810756E-09 -9.485689E-07  2.154796E-09  7.462017E-11 -1.555463E-11 -2.153448E-09  0.000000E+00  0.000000E+00  0.000000E+00  0.000000E+00  0.000000E+00  0.000000E+00  0.000000E+00  0.000000E+00  8.249308E-01  2.996448E-02 -6.246671E-03 -8.243628E-01                                                                                                                                                                                                                                                                                                                                                                                                                                                                                              
  3.750000E+02  1.250000E+02 -5.425000E+03  9.173623E-07  4.478251E-08 -7.153712E-09 -9.162407E-07  2.082891E-09  1.022839E-10 -1.634025E-11 -2.080314E-09  0.000000E+00  0.000000E+00  0.000000E+00  0.000000E+00  0.000000E+00  0.000000E+00  0.000000E+00  0.000000E+00  7.959158E-01  4.107226E-02 -6.561939E-03 -7.948283E-01                                                                                                                                                                                                                                                                                                                                                                                                                                                                                              
  6.250000E+02  1.250000E+02 -5.425000E+03  8.938739E-07 -3.401694E-08 -7.742317E-09 -8.931929E-07  2.029704E-09 -7.769925E-11 -1.768590E-11 -2.028139E-09  0.000000E+00  0.000000E+00  0.000000E+00  0.000000E+00  0.000000E+00  0.000000E+00  0.000000E+00  0.000000E+00  7.748273E-01 -3.120845E-02 -7.102854E-03 -7.741659E-01                                                                                                                                                                                                                                                                                                                                                                                                                                                                                              
  7.600000E+02  1.250000E+02 -5.425000E+03  9.023082E-07 -9.638506E-08 -8.124686E-09 -8.971086E-07  2.048754E-09 -2.201570E-10 -1.855747E-11 -2.036807E-09  0.000000E+00  0.000000E+00  0.000000E+00  0.000000E+00  0.000000E+00  0.000000E+00  0.000000E+00  0.000000E+00  7.826336E-01 -8.842155E-02 -7.453616E-03 -7.775870E-01                                                                                                                                                                                                                                                                                                                                                                                                                                                                                              
  7.800000E+02  1.250000E+02 -5.425000E+03  9.040144E-07 -1.045365E-07 -8.181630E-09 -8.979127E-07  2.052623E-09 -2.387716E-10 -1.868724E-11 -2.038603E-09  0.000000E+00  0.000000E+00  0.000000E+00  0.000000E+00  0.000000E+00  0.000000E+00  0.000000E+00  0.000000E+00  7.842508E-01 -9.590117E-02 -7.505881E-03 -7.783290E-01                                                                                                                                                                                                                                                                                                                                                                                                                                                                                              
  8.000000E+02  1.250000E+02 -5.425000E+03  9.060275E-07 -1.124342E-07 -8.238841E-09 -8.989864E-07  2.057201E-09 -2.567936E-10 -1.881762E-11 -2.041024E-09  0.000000E+00  0.000000E+00  0.000000E+00  0.000000E+00  0.000000E+00  0.000000E+00  0.000000E+00  0.000000E+00  7.862370E-01 -1.031492E-01 -7.558473E-03 -7.794047E-01                                                                                                                                                                                                                                                                                                                                                                                                                                                                                              
  9.350000E+02  1.250000E+02 -5.425000E+03  9.195519E-07 -1.513958E-07 -8.625420E-09 -9.069623E-07  2.087830E-09 -3.456840E-10 -1.969818E-11 -2.058920E-09  0.000000E+00  0.000000E+00  0.000000E+00  0.000000E+00  0.000000E+00  0.000000E+00  0.000000E+00  0.000000E+00  7.990623E-01 -1.388870E-01 -7.913420E-03 -7.868598E-01                                                                                                                                                                                                                                                                                                                                                                                                                                                                                              
  1.185000E+03  1.250000E+02 -5.425000E+03  9.540303E-07 -1.686195E-07 -9.278534E-09 -9.389649E-07  2.165298E-09 -3.849036E-10 -2.118153E-11 -2.130708E-09  0.000000E+00  0.000000E+00  0.000000E+00  0.000000E+00  0.000000E+00  0.000000E+00  0.000000E+00  0.000000E+00  8.301531E-01 -1.546786E-01 -8.511908E-03 -8.155711E-01                                                                                                                                                                                                                                                                                                                                                                                                                                                                                              
  1.435000E+03  1.250000E+02 -5.425000E+03  9.766450E-07 -7.537893E-08 -9.683590E-09 -9.736836E-07  2.215659E-09 -1.720356E-10 -2.209937E-11 -2.208859E-09  0.000000E+00  0.000000E+00  0.000000E+00  0.000000E+00  0.000000E+00  0.000000E+00  0.000000E+00  0.000000E+00  8.502530E-01 -6.914501E-02 -8.883057E-03 -8.473902E-01                                                                                                                                                                                                                                                                                                                                                                                                                                                                                              
  1.250000E+02  1.250000E+02 -5.225000E+03  3.531380E-06  5.622631E-08 -6.058733E-09 -3.530927E-06  7.905253E-09  1.271706E-10 -1.370461E-11 -7.904218E-09  0.000000E+00  0.000000E+00  0.000000E+00  0.000000E+00  0.000000E+00  0.000000E+00  0.000000E+00  0.000000E+00  2.874912E+00  4.888990E-02 -5.267514E-03 -2.874491E+00                                                                                                                                                                                                                                                                                                                                                                                                                                                                                              
  3.750000E+02  1.250000E+02 -5.225000E+03  3.384771E-06  8.583007E-08 -6.422805E-09 -3.383676E-06  7.576929E-09  1.941312E-10 -1.452809E-11 -7.574428E-09  0.000000E+00  0.000000E+00  0.000000E+00  0.000000E+00  0.000000E+00  0.000000E+00  0.000000E+00  0.000000E+00  2.732203E+00  7.458471E-02 -5.574147E-03 -2.731179E+00                                                                                                                                                                                                                                                                                                                                                                                                                                                                                              
  6.250000E+02  1.250000E+02 -5.225000E+03  3.284378E-06 -2.025272E-08 -7.028707E-09 -3.284308E-06  7.352559E-09 -4.580493E-11 -1.589877E-11 -7.352399E-09  0.000000E+00  0.000000E+00  0.000000E+00  0.000000E+00  0.000000E+00  0.000000E+00  0.000000E+00  0.000000E+00  2.639356E+00 -1.753720E-02 -6.094873E-03 -2.639291E+00                                                                                                                                                                                                                                                                                                                                                                                                                                                                                              
  7.600000E+02  1.250000E+02 -5.225000E+03  3.300237E-06 -1.055526E-07 -7.415103E-09 -3.298540E-06  7.387217E-09 -2.387367E-10 -1.677096E-11 -7.383339E-09  0.000000E+00  0.000000E+00  0.000000E+00  0.000000E+00  0.000000E+00  0.000000E+00  0.000000E+00  0.000000E+00  2.653066E+00 -9.153341E-02 -6.430149E-03 -2.651479E+00                                                                                                                                                                                                                                                                                                                                                                                                                                                                                              
  7.800000E+02  1.250000E+02 -5.225000E+03  3.304084E-06 -1.170798E-07 -7.472948E-09 -3.302000E-06  7.395775E-09 -2.648057E-10 -1.690160E-11 -7.391013E-09  0.000000E+00  0.000000E+00  0.000000E+00  0.000000E+00  0.000000E+00  0.000000E+00  0.000000E+00  0.000000E+00  2.656831E+00 -1.015519E-01 -6.480684E-03 -2.654882E+00                                                                                                                                                                                                                                                                                                                                                                                                                                                                                              
  8.000000E+02  1.250000E+02 -5.225000E+03  3.310216E-06 -1.281577E-07 -7.531814E-09 -3.307726E-06  7.409648E-09 -2.898473E-10 -1.703480E-11 -7.403957E-09  0.000000E+00  0.000000E+00  0.000000E+00  0.000000E+00  0.000000E+00  0.000000E+00  0.000000E+00  0.000000E+00  2.663688E+00 -1.112107E-01 -6.532949E-03 -2.661357E+00                                                                                                                                                                                                                                                                                                                                                                                                                                                                                              
  9.350000E+02  1.250000E+02 -5.225000E+03  3.348133E-06 -1.810656E-07 -7.925831E-09 -3.343224E-06  7.494310E-09 -4.094021E-10 -1.792483E-11 -7.483097E-09  0.000000E+00  0.000000E+00  0.000000E+00  0.000000E+00  0.000000E+00  0.000000E+00  0.000000E+00  0.000000E+00  2.701500E+00 -1.572746E-01 -6.879376E-03 -2.696909E+00                                                                                                                                                                                                                                                                                                                                                                                                                                                                                              
  1.185000E+03  1.250000E+02 -5.225000E+03  3.476515E-06 -2.133080E-07 -8.603260E-09 -3.469954E-06  7.778989E-09 -4.821964E-10 -1.945052E-11 -7.764005E-09  0.000000E+00  0.000000E+00  0.000000E+00  0.000000E+00  0.000000E+00  0.000000E+00  0.000000E+00  0.000000E+00  2.821360E+00 -1.855263E-01 -7.475898E-03 -2.815243E+00                                                                                                                                                                                                                                                                                                                                                                                                                                                                                              
  1.435000E+03  1.250000E+02 -5.225000E+03  3.623700E-06 -9.901642E-08 -9.048427E-09 -3.622336E-06  8.107281E-09 -2.238072E-10 -2.045376E-11 -8.104165E-09  0.000000E+00  0.000000E+00  0.000000E+00  0.000000E+00  0.000000E+00  0.000000E+00  0.000000E+00  0.000000E+00  2.967437E+00 -8.621200E-02 -7.878006E-03 -2.966174E+00                                                                                                                                                                                                                                                                                                                                                                                                                                                                                              
  1.250000E+02  1.250000E+02 -4.975000E+03  6.953897E-06  1.394093E-07 -4.015929E-09 -6.952498E-06  1.512296E-08  3.084115E-10 -8.889915E-12 -1.511982E-08  0.000000E+00  0.000000E+00  0.000000E+00  0.000000E+00  0.000000E+00  0.000000E+00  0.000000E+00  0.000000E+00  4.882231E+00  1.107447E-01 -3.188903E-03 -4.880974E+00                                                                                                                                                                                                                                                                                                                                                                                                                                                                                              
  3.750000E+02  1.250000E+02 -4.975000E+03  6.537794E-06  2.289773E-07 -4.437853E-09 -6.533781E-06  1.421377E-08  5.064914E-10 -9.817378E-12 -1.420474E-08  0.000000E+00  0.000000E+00  0.000000E+00  0.000000E+00  0.000000E+00  0.000000E+00  0.000000E+00  0.000000E+00  4.478628E+00  1.810741E-01 -3.483696E-03 -4.474964E+00                                                                                                                                                                                                                                                                                                                                                                                                                                                                                              
  6.250000E+02  1.250000E+02 -4.975000E+03  6.277736E-06  2.672188E-08 -5.086011E-09 -6.277677E-06  1.364813E-08  5.910352E-11 -1.124830E-11 -1.364800E-08  0.000000E+00  0.000000E+00  0.000000E+00  0.000000E+00  0.000000E+00  0.000000E+00  0.000000E+00  0.000000E+00  4.243248E+00  2.127476E-02 -3.968618E-03 -4.243192E+00                                                                                                                                                                                                                                                                                                                                                                                                                                                                                              
  7.600000E+02  1.250000E+02 -4.975000E+03  6.304329E-06 -1.375272E-07 -5.478108E-09 -6.302826E-06  1.370443E-08 -3.041250E-10 -1.211408E-11 -1.370104E-08  0.000000E+00  0.000000E+00  0.000000E+00  0.000000E+00  0.000000E+00  0.000000E+00  0.000000E+00  0.000000E+00  4.266137E+00 -1.073778E-01 -4.276239E-03 -4.264783E+00                                                                                                                                                                                                                                                                                                                                                                                                                                                                                              
  7.800000E+02  1.250000E+02 -4.975000E+03  6.313754E-06 -1.609054E-07 -5.537897E-09 -6.311701E-06  1.372494E-08 -3.558305E-10 -1.224637E-11 -1.372032E-08  0.000000E+00  0.000000E+00  0.000000E+00  0.000000E+00  0.000000E+00  0.000000E+00  0.000000E+00  0.000000E+00  4.275173E+00 -1.257535E-01 -4.324277E-03 -4.273321E+00                                                                                                                                                                                                                                                                                                                                                                                                                                                                                              
  8.000000E+02  1.250000E+02 -4.975000E+03  6.333787E-06 -1.831603E-07 -5.601399E-09 -6.331136E-06  1.376923E-08 -4.050540E-10 -1.238769E-11 -1.376327E-08  0.000000E+00  0.000000E+00  0.000000E+00  0.000000E+00  0.000000E+00  0.000000E+00  0.000000E+00  0.000000E+00  4.295951E+00 -1.434719E-01 -4.378006E-03 -4.293552E+00                                                                                                                                                                                                                                                                                                                                                                                                                                                                                              
  9.350000E+02  1.250000E+02 -4.975000E+03  6.441150E-06 -2.787361E-07 -6.013779E-09 -6.435113E-06  1.400334E-08 -6.163465E-10 -1.330155E-11 -1.398977E-08  0.000000E+00  0.000000E+00  0.000000E+00  0.000000E+00  0.000000E+00  0.000000E+00  0.000000E+00  0.000000E+00  4.399173E+00 -2.197374E-01 -4.716578E-03 -4.393679E+00                                                                                                                                                                                                                                                                                                                                                                                                                                                                                              
  1.185000E+03  1.250000E+02 -4.975000E+03  6.721400E-06 -3.613082E-07 -6.772030E-09 -6.711679E-06  1.461173E-08 -7.990043E-10 -1.497917E-11 -1.458986E-08  0.000000E+00  0.000000E+00  0.000000E+00  0.000000E+00  0.000000E+00  0.000000E+00  0.000000E+00  0.000000E+00  4.667746E+00 -2.873683E-01 -5.352389E-03 -4.658889E+00                                                                                                                                                                                                                                                                                                                                                                                                                                                                                              
  1.435000E+03  1.250000E+02 -4.975000E+03  7.124704E-06 -1.795080E-07 -7.368622E-09 -7.122438E-06  1.549393E-08 -3.970299E-10 -1.630856E-11 -1.548884E-08  0.000000E+00  0.000000E+00  0.000000E+00  0.000000E+00  0.000000E+00  0.000000E+00  0.000000E+00  0.000000E+00  5.078794E+00 -1.436724E-01 -5.896716E-03 -5.076758E+00                                                                                                                                                                                                                                                                                                                                                                                                                                                                                              
  1.250000E+02  1.250000E+02 -4.725000E+03  1.074143E-05  2.263308E-07 -9.244448E-10 -1.073904E-05  2.237884E-08  4.791366E-10 -1.959909E-12 -2.237371E-08  0.000000E+00  0.000000E+00  0.000000E+00  0.000000E+00  0.000000E+00  0.000000E+00  0.000000E+00  0.000000E+00  5.776646E+00  1.467704E-01 -5.987656E-04 -5.774781E+00                                                                                                                                                                                                                                                                                                                                                                                                                                                                                              
  3.750000E+02  1.250000E+02 -4.725000E+03  9.831704E-06  3.762000E-07 -1.285610E-09 -9.824504E-06  2.044359E-08  7.961133E-10 -2.721148E-12 -2.042809E-08  0.000000E+00  0.000000E+00  0.000000E+00  0.000000E+00  0.000000E+00  0.000000E+00  0.000000E+00  0.000000E+00  4.981749E+00  2.404280E-01 -8.029220E-04 -4.975944E+00                                                                                                                                                                                                                                                                                                                                                                                                                                                                                              
  6.250000E+02  1.250000E+02 -4.725000E+03  9.327257E-06  8.890666E-08 -1.758401E-09 -9.326833E-06  1.937670E-08  1.880411E-10 -3.719476E-12 -1.937578E-08  0.000000E+00  0.000000E+00  0.000000E+00  0.000000E+00  0.000000E+00  0.000000E+00  0.000000E+00  0.000000E+00  4.569937E+00  5.627535E-02 -1.076597E-03 -4.569590E+00                                                                                                                                                                                                                                                                                                                                                                                                                                                                                              
  7.600000E+02  1.250000E+02 -4.725000E+03  9.315978E-06 -1.421555E-07 -1.992641E-09 -9.314893E-06  1.935521E-08 -3.006661E-10 -4.214611E-12 -1.935288E-08  0.000000E+00  0.000000E+00  0.000000E+00  0.000000E+00  0.000000E+00  0.000000E+00  0.000000E+00  0.000000E+00  4.574167E+00 -8.723461E-02 -1.221963E-03 -4.573334E+00                                                                                                                                                                                                                                                                                                                                                                                                                                                                                              
  7.800000E+02  1.250000E+02 -4.725000E+03  9.325931E-06 -1.828737E-07 -2.029704E-09 -9.324137E-06  1.937683E-08 -3.868096E-10 -4.293111E-12 -1.937297E-08  0.000000E+00  0.000000E+00  0.000000E+00  0.000000E+00  0.000000E+00  0.000000E+00  0.000000E+00  0.000000E+00  4.584072E+00 -1.124855E-01 -1.245777E-03 -4.582692E+00                                                                                                                                                                                                                                                                                                                                                                                                                                                                                              
  8.000000E+02  1.250000E+02 -4.725000E+03  9.347152E-06 -2.245815E-07 -2.071655E-09 -9.344453E-06  1.942374E-08 -4.750646E-10 -4.382417E-12 -1.941793E-08  0.000000E+00  0.000000E+00  0.000000E+00  0.000000E+00  0.000000E+00  0.000000E+00  0.000000E+00  0.000000E+00  4.605164E+00 -1.390507E-01 -1.274609E-03 -4.603064E+00                                                                                                                                                                                                                                                                                                                                                                                                                                                                                              
  9.350000E+02  1.250000E+02 -4.725000E+03  9.688376E-06 -3.272835E-07 -2.346867E-09 -9.682846E-06  2.013911E-08 -6.923997E-10 -4.966459E-12 -2.012721E-08  0.000000E+00  0.000000E+00  0.000000E+00  0.000000E+00  0.000000E+00  0.000000E+00  0.000000E+00  0.000000E+00  4.866269E+00 -2.065354E-01 -1.458644E-03 -4.861884E+00                                                                                                                                                                                                                                                                                                                                                                                                                                                                                              
  1.185000E+03  1.250000E+02 -4.725000E+03  1.010715E-05 -4.421866E-07 -2.914335E-09 -1.009747E-05  2.103533E-08 -9.361213E-10 -6.171496E-12 -2.101449E-08  0.000000E+00  0.000000E+00  0.000000E+00  0.000000E+00  0.000000E+00  0.000000E+00  0.000000E+00  0.000000E+00  5.263071E+00 -2.875167E-01 -1.855179E-03 -5.255211E+00                                                                                                                                                                                                                                                                                                                                                                                                                                                                                              