Title="TOUGHREACT V3.30-OMP flowvector.tec: Liq & Gas Fluxes (kg/s/m^2), Pore Velocities (m/s), & Heat Fluxes (J/s/m2)"                                                                                                                                                                                                                                                                                                                                                                                                                                                                                                                                                                                                                                                                                                         
Variables= "X(m)"     "Y(m)"      "Z(m)"     "FluxLiq"   "FluxLiq_X"   "FluxLiq_Y"   "FluxLiq_Z"   "PorVelLiq"  "PorVelLiqX"  "PorVelLiqY"  "PorVelLiqZ"     "FluxGas"   "FluxGas_X"   "FluxGas_Y"   "FluxGas_Z"   "PorVelGas"  "PorVelGasX"  "PorVelGasY"  "PorVelGasZ"    "HeatFlux"  "HeatFlux_X"  "HeatFlux_Y"  "HeatFlux_Z"                                                                                                                                                                                                                                                                                                                                                                                                                                                                                                
Zone T= "6.70000000E+09 sec" I=     9 J=    10 K=    23 F=Point
  1.250000E+02  1.250000E+02 -5.425000E+03  9.680144E-07  2.884119E-08 -4.378267E-09 -9.675748E-07  3.559143E-09  1.065765E-10 -1.617851E-11 -3.557510E-09  0.000000E+00  0.000000E+00  0.000000E+00  0.000000E+00  0.000000E+00  0.000000E+00  0.000000E+00  0.000000E+00  7.010106E-01  2.170657E-02 -3.295278E-03 -7.006667E-01                                                                                                                                                                                                                                                                                                                                                                                                                                                                                              
  3.750000E+02  1.250000E+02 -5.425000E+03  9.409323E-07  4.110869E-08 -4.646125E-09 -9.400224E-07  3.460255E-09  1.519138E-10 -1.717038E-11 -3.456876E-09  0.000000E+00  0.000000E+00  0.000000E+00  0.000000E+00  0.000000E+00  0.000000E+00  0.000000E+00  0.000000E+00  6.813248E-01  3.093980E-02 -3.497093E-03 -6.806129E-01                                                                                                                                                                                                                                                                                                                                                                                                                                                                                              
  6.250000E+02  1.250000E+02 -5.425000E+03  9.203137E-07 -2.489621E-08 -5.108606E-09 -9.199627E-07  3.384777E-09 -9.200624E-11 -1.888058E-11 -3.383474E-09  0.000000E+00  0.000000E+00  0.000000E+00  0.000000E+00  0.000000E+00  0.000000E+00  0.000000E+00  0.000000E+00  6.662938E-01 -1.874129E-02 -3.845447E-03 -6.660191E-01                                                                                                                                                                                                                                                                                                                                                                                                                                                                                              
  7.600000E+02  1.250000E+02 -5.425000E+03  9.262951E-07 -7.786289E-08 -5.411268E-09 -9.230009E-07  3.406586E-09 -2.877504E-10 -1.999759E-11 -3.394352E-09  0.000000E+00  0.000000E+00  0.000000E+00  0.000000E+00  0.000000E+00  0.000000E+00  0.000000E+00  0.000000E+00  6.708053E-01 -5.861037E-02 -4.073321E-03 -6.682275E-01                                                                                                                                                                                                                                                                                                                                                                                                                                                                                              
  7.800000E+02  1.250000E+02 -5.425000E+03  9.275236E-07 -8.484957E-08 -5.456351E-09 -9.236183E-07  3.411078E-09 -3.135657E-10 -2.016395E-11 -3.396575E-09  0.000000E+00  0.000000E+00  0.000000E+00  0.000000E+00  0.000000E+00  0.000000E+00  0.000000E+00  0.000000E+00  6.717359E-01 -6.386966E-02 -4.107265E-03 -6.686800E-01                                                                                                                                                                                                                                                                                                                                                                                                                                                                                              
  8.000000E+02  1.250000E+02 -5.425000E+03  9.289559E-07 -9.164477E-08 -5.501627E-09 -9.244079E-07  3.416316E-09 -3.386589E-10 -2.033098E-11 -3.399428E-09  0.000000E+00  0.000000E+00  0.000000E+00  0.000000E+00  0.000000E+00  0.000000E+00  0.000000E+00  0.000000E+00  6.728267E-01 -6.898511E-02 -4.141356E-03 -6.692680E-01                                                                                                                                                                                                                                                                                                                                                                                                                                                                                              
  9.350000E+02  1.250000E+02 -5.425000E+03  9.392661E-07 -1.260742E-07 -5.808078E-09 -9.307483E-07  3.453982E-09 -4.657806E-10 -2.146128E-11 -3.422365E-09  0.000000E+00  0.000000E+00  0.000000E+00  0.000000E+00  0.000000E+00  0.000000E+00  0.000000E+00  0.000000E+00  6.806214E-01 -9.490221E-02 -4.372085E-03 -6.739584E-01                                                                                                                                                                                                                                                                                                                                                                                                                                                                                              
  1.185000E+03  1.250000E+02 -5.425000E+03  9.687734E-07 -1.424288E-07 -6.331760E-09 -9.582254E-07  3.561195E-09 -5.260835E-10 -2.338902E-11 -3.522045E-09  0.000000E+00  0.000000E+00  0.000000E+00  0.000000E+00  0.000000E+00  0.000000E+00  0.000000E+00  0.000000E+00  7.022213E-01 -1.072129E-01 -4.766310E-03 -6.939722E-01                                                                                                                                                                                                                                                                                                                                                                                                                                                                                              
  1.435000E+03  1.250000E+02 -5.425000E+03  9.898548E-07 -6.384897E-08 -6.655561E-09 -9.877710E-07  3.637167E-09 -2.358029E-10 -2.457887E-11 -3.629432E-09  0.000000E+00  0.000000E+00  0.000000E+00  0.000000E+00  0.000000E+00  0.000000E+00  0.000000E+00  0.000000E+00  7.171155E-01 -4.806199E-02 -5.010032E-03 -7.154855E-01                                                                                                                                                                                                                                                                                                                                                                                                                                                                                              
  1.250000E+02  1.250000E+02 -5.225000E+03  3.585199E-06  4.990272E-08 -3.831576E-09 -3.584850E-06  1.304135E-08  1.830622E-10 -1.405542E-11 -1.304005E-08  0.000000E+00  0.000000E+00  0.000000E+00  0.000000E+00  0.000000E+00  0.000000E+00  0.000000E+00  0.000000E+00  2.518234E+00  3.614612E-02 -2.775342E-03 -2.517973E+00                                                                                                                                                                                                                                                                                                                                                                                                                                                                                              
  3.750000E+02  1.250000E+02 -5.225000E+03  3.458470E-06  7.779082E-08 -4.130891E-09 -3.457592E-06  1.258408E-08  2.853851E-10 -1.515620E-11 -1.258083E-08  0.000000E+00  0.000000E+00  0.000000E+00  0.000000E+00  0.000000E+00  0.000000E+00  0.000000E+00  0.000000E+00  2.421203E+00  5.634357E-02 -2.991725E-03 -2.420545E+00                                                                                                                                                                                                                                                                                                                                                                                                                                                                                              
  6.250000E+02  1.250000E+02 -5.225000E+03  3.370795E-06 -1.254355E-08 -4.622522E-09 -3.370769E-06  1.226702E-08 -4.602561E-11 -1.696169E-11 -1.226692E-08  0.000000E+00  0.000000E+00  0.000000E+00  0.000000E+00  0.000000E+00  0.000000E+00  0.000000E+00  0.000000E+00  2.354252E+00 -9.081491E-03 -3.347454E-03 -2.354232E+00                                                                                                                                                                                                                                                                                                                                                                                                                                                                                              
  7.600000E+02  1.250000E+02 -5.225000E+03  3.382997E-06 -8.591016E-08 -4.934811E-09 -3.381902E-06  1.231023E-08 -3.152114E-10 -1.810598E-11 -1.230618E-08  0.000000E+00  0.000000E+00  0.000000E+00  0.000000E+00  0.000000E+00  0.000000E+00  0.000000E+00  0.000000E+00  2.363173E+00 -6.221314E-02 -3.573647E-03 -2.362351E+00                                                                                                                                                                                                                                                                                                                                                                                                                                                                                              
  7.800000E+02  1.250000E+02 -5.225000E+03  3.385805E-06 -9.589668E-08 -4.981355E-09 -3.384443E-06  1.232028E-08 -3.518470E-10 -1.827649E-11 -1.231524E-08  0.000000E+00  0.000000E+00  0.000000E+00  0.000000E+00  0.000000E+00  0.000000E+00  0.000000E+00  0.000000E+00  2.365355E+00 -6.944714E-02 -3.607382E-03 -2.364333E+00                                                                                                                                                                                                                                                                                                                                                                                                                                                                                              
  8.000000E+02  1.250000E+02 -5.225000E+03  3.389869E-06 -1.055954E-07 -5.028176E-09 -3.388220E-06  1.233499E-08 -3.874081E-10 -1.844803E-11 -1.232889E-08  0.000000E+00  0.000000E+00  0.000000E+00  0.000000E+00  0.000000E+00  0.000000E+00  0.000000E+00  0.000000E+00  2.368822E+00 -7.647798E-02 -3.641377E-03 -2.367584E+00                                                                                                                                                                                                                                                                                                                                                                                                                                                                                              
  9.350000E+02  1.250000E+02 -5.225000E+03  3.420735E-06 -1.531128E-07 -5.345074E-09 -3.417302E-06  1.244636E-08 -5.615819E-10 -1.960865E-11 -1.243367E-08  0.000000E+00  0.000000E+00  0.000000E+00  0.000000E+00  0.000000E+00  0.000000E+00  0.000000E+00  0.000000E+00  2.394257E+00 -1.109104E-01 -3.871438E-03 -2.391684E+00                                                                                                                                                                                                                                                                                                                                                                                                                                                                                              
  1.185000E+03  1.250000E+02 -5.225000E+03  3.532100E-06 -1.832971E-07 -5.898559E-09 -3.527335E-06  1.284553E-08 -6.720993E-10 -2.163087E-11 -1.282792E-08  0.000000E+00  0.000000E+00  0.000000E+00  0.000000E+00  0.000000E+00  0.000000E+00  0.000000E+00  0.000000E+00  2.478460E+00 -1.327915E-01 -4.273017E-03 -2.474897E+00                                                                                                                                                                                                                                                                                                                                                                                                                                                                                              
  1.435000E+03  1.250000E+02 -5.225000E+03  3.660096E-06 -8.536156E-08 -6.251593E-09 -3.659095E-06  1.330452E-08 -3.129413E-10 -2.291792E-11 -1.330082E-08  0.000000E+00  0.000000E+00  0.000000E+00  0.000000E+00  0.000000E+00  0.000000E+00  0.000000E+00  0.000000E+00  2.575363E+00 -6.184616E-02 -4.529456E-03 -2.574616E+00                                                                                                                                                                                                                                                                                                                                                                                                                                                                                              
  1.250000E+02  1.250000E+02 -4.975000E+03  7.006460E-06  1.369133E-07 -2.348424E-09 -7.005122E-06  2.498373E-08  4.945503E-10 -8.484803E-12 -2.497884E-08  0.000000E+00  0.000000E+00  0.000000E+00  0.000000E+00  0.000000E+00  0.000000E+00  0.000000E+00  0.000000E+00  4.625829E+00  9.508931E-02 -1.630743E-03 -4.624852E+00                                                                                                                                                                                                                                                                                                                                                                                                                                                                                              
  3.750000E+02  1.250000E+02 -4.975000E+03  6.625430E-06  2.229379E-07 -2.781227E-09 -6.621677E-06  2.362019E-08  8.053193E-10 -1.004896E-11 -2.360646E-08  0.000000E+00  0.000000E+00  0.000000E+00  0.000000E+00  0.000000E+00  0.000000E+00  0.000000E+00  0.000000E+00  4.276443E+00  1.545590E-01 -1.922344E-03 -4.273649E+00                                                                                                                                                                                                                                                                                                                                                                                                                                                                                              
  6.250000E+02  1.250000E+02 -4.975000E+03  6.401765E-06  3.314832E-08 -3.379243E-09 -6.401678E-06  2.281860E-08  1.197389E-10 -1.220954E-11 -2.281828E-08  0.000000E+00  0.000000E+00  0.000000E+00  0.000000E+00  0.000000E+00  0.000000E+00  0.000000E+00  0.000000E+00  4.075759E+00  2.303434E-02 -2.328064E-03 -4.075693E+00                                                                                                                                                                                                                                                                                                                                                                                                                                                                                              
  7.600000E+02  1.250000E+02 -4.975000E+03  6.417779E-06 -1.169330E-07 -3.725143E-09 -6.416713E-06  2.287416E-08 -4.224501E-10 -1.345795E-11 -2.287025E-08  0.000000E+00  0.000000E+00  0.000000E+00  0.000000E+00  0.000000E+00  0.000000E+00  0.000000E+00  0.000000E+00  4.089597E+00 -8.058372E-02 -2.566874E-03 -4.088802E+00                                                                                                                                                                                                                                                                                                                                                                                                                                                                                              
  7.800000E+02  1.250000E+02 -4.975000E+03  6.423894E-06 -1.391385E-07 -3.777111E-09 -6.422386E-06  2.289599E-08 -5.026708E-10 -1.364559E-11 -2.289047E-08  0.000000E+00  0.000000E+00  0.000000E+00  0.000000E+00  0.000000E+00  0.000000E+00  0.000000E+00  0.000000E+00  4.095347E+00 -9.592287E-02 -2.602998E-03 -4.094223E+00                                                                                                                                                                                                                                                                                                                                                                                                                                                                                              
  8.000000E+02  1.250000E+02 -4.975000E+03  6.437204E-06 -1.606152E-07 -3.830341E-09 -6.435199E-06  2.294428E-08 -5.802467E-10 -1.383809E-11 -2.293694E-08  0.000000E+00  0.000000E+00  0.000000E+00  0.000000E+00  0.000000E+00  0.000000E+00  0.000000E+00  0.000000E+00  4.109011E+00 -1.108808E-01 -2.640625E-03 -4.107514E+00                                                                                                                                                                                                                                                                                                                                                                                                                                                                                              
  9.350000E+02  1.250000E+02 -4.975000E+03  6.531438E-06 -2.543688E-07 -4.190629E-09 -6.526482E-06  2.328464E-08 -9.187043E-10 -1.514048E-11 -2.326651E-08  0.000000E+00  0.000000E+00  0.000000E+00  0.000000E+00  0.000000E+00  0.000000E+00  0.000000E+00  0.000000E+00  4.203101E+00 -1.761658E-01 -2.895297E-03 -4.199407E+00                                                                                                                                                                                                                                                                                                                                                                                                                                                                                              
  1.185000E+03  1.250000E+02 -4.975000E+03  6.774088E-06 -3.441613E-07 -4.880103E-09 -6.765338E-06  2.414942E-08 -1.242656E-09 -1.762581E-11 -2.411742E-08  0.000000E+00  0.000000E+00  0.000000E+00  0.000000E+00  0.000000E+00  0.000000E+00  0.000000E+00  0.000000E+00  4.426712E+00 -2.391016E-01 -3.383363E-03 -4.420249E+00                                                                                                                                                                                                                                                                                                                                                                                                                                                                                              
  1.435000E+03  1.250000E+02 -4.975000E+03  7.149244E-06 -1.753259E-07 -5.387219E-09 -7.147092E-06  2.548602E-08 -6.329478E-10 -1.945178E-11 -2.547815E-08  0.000000E+00  0.000000E+00  0.000000E+00  0.000000E+00  0.000000E+00  0.000000E+00  0.000000E+00  0.000000E+00  4.771846E+00 -1.220421E-01 -3.749732E-03 -4.770283E+00                                                                                                                                                                                                                                                                                                                                                                                                                                                                                              
  1.250000E+02  1.250000E+02 -4.725000E+03  1.076490E-05  2.534512E-07 -2.390162E-10 -1.076191E-05  3.725767E-08  8.887864E-10 -8.396256E-13 -3.724707E-08  0.000000E+00  0.000000E+00  0.000000E+00  0.000000E+00  0.000000E+00  0.000000E+00  0.000000E+00  0.000000E+00  5.911703E+00  1.622977E-01 -1.526705E-04 -5.909475E+00                                                                                                                                                                                                                                                                                                                                                                                                                                                                                              
  3.750000E+02  1.250000E+02 -4.725000E+03  9.844325E-06  3.925918E-07 -8.165928E-10 -9.836494E-06  3.396758E-08  1.375958E-09 -2.861962E-12 -3.393970E-08  0.000000E+00  0.000000E+00  0.000000E+00  0.000000E+00  0.000000E+00  0.000000E+00  0.000000E+00  0.000000E+00  4.984406E+00  2.482755E-01 -5.040886E-04 -4.978219E+00                                                                                                                                                                                                                                                                                                                                                                                                                                                                                              
  6.250000E+02  1.250000E+02 -4.725000E+03  9.458060E-06  8.977011E-08 -1.345916E-09 -9.457634E-06  3.258455E-08  3.143779E-10 -4.710909E-12 -3.258303E-08  0.000000E+00  0.000000E+00  0.000000E+00  0.000000E+00  0.000000E+00  0.000000E+00  0.000000E+00  0.000000E+00  4.607112E+00  5.609394E-02 -8.135529E-04 -4.606770E+00                                                                                                                                                                                                                                                                                                                                                                                                                                                                                              
  7.600000E+02  1.250000E+02 -4.725000E+03  9.438436E-06 -1.165084E-07 -1.600429E-09 -9.437717E-06  3.251953E-08 -4.077850E-10 -5.601654E-12 -3.251697E-08  0.000000E+00  0.000000E+00  0.000000E+00  0.000000E+00  0.000000E+00  0.000000E+00  0.000000E+00  0.000000E+00  4.605498E+00 -7.056583E-02 -9.686319E-04 -4.604958E+00                                                                                                                                                                                                                                                                                                                                                                                                                                                                                              
  7.800000E+02  1.250000E+02 -4.725000E+03  9.443589E-06 -1.522612E-07 -1.640017E-09 -9.442361E-06  3.253877E-08 -5.329595E-10 -5.740419E-12 -3.253440E-08  0.000000E+00  0.000000E+00  0.000000E+00  0.000000E+00  0.000000E+00  0.000000E+00  0.000000E+00  0.000000E+00  4.612540E+00 -9.240369E-02 -9.932688E-04 -4.611614E+00                                                                                                                                                                                                                                                                                                                                                                                                                                                                                              
  8.000000E+02  1.250000E+02 -4.725000E+03  9.456376E-06 -1.888003E-07 -1.683065E-09 -9.454491E-06  3.258693E-08 -6.610233E-10 -5.891949E-12 -3.258022E-08  0.000000E+00  0.000000E+00  0.000000E+00  0.000000E+00  0.000000E+00  0.000000E+00  0.000000E+00  0.000000E+00  4.628148E+00 -1.154900E-01 -1.021348E-03 -4.626707E+00                                                                                                                                                                                                                                                                                                                                                                                                                                                                                              
  9.350000E+02  1.250000E+02 -4.725000E+03  9.723793E-06 -3.112630E-07 -1.982557E-09 -9.718810E-06  3.353703E-08 -1.090525E-09 -6.946561E-12 -3.351929E-08  0.000000E+00  0.000000E+00  0.000000E+00  0.000000E+00  0.000000E+00  0.000000E+00  0.000000E+00  0.000000E+00  4.870807E+00 -1.944239E-01 -1.218304E-03 -4.866925E+00                                                                                                                                                                                                                                                                                                                                                                                                                                                                                              
  1.185000E+03  1.250000E+02 -4.725000E+03  1.005503E-05 -5.028855E-07 -2.717936E-09 -1.004245E-05  3.474023E-08 -1.763835E-09 -9.535380E-12 -3.469543E-08  0.000000E+00  0.000000E+00  0.000000E+00  0.000000E+00  0.000000E+00  0.000000E+00  0.000000E+00  0.000000E+00  5.258022E+00 -3.228479E-01 -1.710239E-03 -5.248100E+00                                                                                                                                                                                                                                                                                                                                                                                                                                                                                              