Title="TOUGHREACT V3.30-OMP flowvector.tec: Liq & Gas Fluxes (kg/s/m^2), Pore Velocities (m/s), & Heat Fluxes (J/s/m2)"                                                                                                                                                                                                                                                                                                                                                                                                                                                                                                                                                                                                                                                                                                         
Variables= "X(m)"     "Y(m)"      "Z(m)"     "FluxLiq"   "FluxLiq_X"   "FluxLiq_Y"   "FluxLiq_Z"   "PorVelLiq"  "PorVelLiqX"  "PorVelLiqY"  "PorVelLiqZ"     "FluxGas"   "FluxGas_X"   "FluxGas_Y"   "FluxGas_Z"   "PorVelGas"  "PorVelGasX"  "PorVelGasY"  "PorVelGasZ"    "HeatFlux"  "HeatFlux_X"  "HeatFlux_Y"  "HeatFlux_Z"                                                                                                                                                                                                                                                                                                                                                                                                                                                                                                
Zone T= "2.66000000E+10 sec" I=     9 J=    10 K=    23 F=Point
  1.250000E+02  1.250000E+02 -5.425000E+03  9.408046E-07  3.759997E-08 -8.597239E-09 -9.400136E-07  1.798616E-09  7.237637E-11 -1.654807E-11 -1.797083E-09  0.000000E+00  0.000000E+00  0.000000E+00  0.000000E+00  0.000000E+00  0.000000E+00  0.000000E+00  0.000000E+00  8.712582E-01  3.716076E-02 -8.497268E-03 -8.704239E-01                                                                                                                                                                                                                                                                                                                                                                                                                                                                                              
  3.750000E+02  1.250000E+02 -5.425000E+03  9.034343E-07  5.052910E-08 -9.001233E-09 -9.019753E-07  1.727418E-09  9.726786E-11 -1.732853E-11 -1.724590E-09  0.000000E+00  0.000000E+00  0.000000E+00  0.000000E+00  0.000000E+00  0.000000E+00  0.000000E+00  0.000000E+00  8.348723E-01  4.993934E-02 -8.897464E-03 -8.333299E-01                                                                                                                                                                                                                                                                                                                                                                                                                                                                                              
  6.250000E+02  1.250000E+02 -5.425000E+03  8.751897E-07 -4.430274E-08 -9.692915E-09 -8.740140E-07  1.673568E-09 -8.528675E-11 -1.866157E-11 -1.671289E-09  0.000000E+00  0.000000E+00  0.000000E+00  0.000000E+00  0.000000E+00  0.000000E+00  0.000000E+00  0.000000E+00  8.080078E-01 -4.380109E-02 -9.582991E-03 -8.067628E-01                                                                                                                                                                                                                                                                                                                                                                                                                                                                                              
  7.600000E+02  1.250000E+02 -5.425000E+03  8.874511E-07 -1.193847E-07 -1.013685E-08 -8.793258E-07  1.696959E-09 -2.298266E-10 -1.951378E-11 -1.681210E-09  0.000000E+00  0.000000E+00  0.000000E+00  0.000000E+00  0.000000E+00  0.000000E+00  0.000000E+00  0.000000E+00  8.202764E-01 -1.180252E-01 -1.002176E-02 -8.116791E-01                                                                                                                                                                                                                                                                                                                                                                                                                                                                                              
  7.800000E+02  1.250000E+02 -5.425000E+03  8.898600E-07 -1.290870E-07 -1.020292E-08 -8.803882E-07  1.701570E-09 -2.484989E-10 -1.964060E-11 -1.683212E-09  0.000000E+00  0.000000E+00  0.000000E+00  0.000000E+00  0.000000E+00  0.000000E+00  0.000000E+00  0.000000E+00  8.227490E-01 -1.276209E-01 -1.008716E-02 -8.127281E-01                                                                                                                                                                                                                                                                                                                                                                                                                                                                                              
  8.000000E+02  1.250000E+02 -5.425000E+03  8.926398E-07 -1.384660E-07 -1.026930E-08 -8.817752E-07  1.706907E-09 -2.665321E-10 -1.976803E-11 -1.685853E-09  0.000000E+00  0.000000E+00  0.000000E+00  0.000000E+00  0.000000E+00  0.000000E+00  0.000000E+00  0.000000E+00  8.257111E-01 -1.368990E-01 -1.015304E-02 -8.142202E-01                                                                                                                                                                                                                                                                                                                                                                                                                                                                                              
  9.350000E+02  1.250000E+02 -5.425000E+03  9.107003E-07 -1.840358E-07 -1.071682E-08 -8.918469E-07  1.741398E-09 -3.541308E-10 -2.062643E-11 -1.704885E-09  0.000000E+00  0.000000E+00  0.000000E+00  0.000000E+00  0.000000E+00  0.000000E+00  0.000000E+00  0.000000E+00  8.440651E-01 -1.819419E-01 -1.059609E-02 -8.241546E-01                                                                                                                                                                                                                                                                                                                                                                                                                                                                                              
  1.185000E+03  1.250000E+02 -5.425000E+03  9.528503E-07 -2.020069E-07 -1.145923E-08 -9.311206E-07  1.821157E-09 -3.885814E-10 -2.204495E-11 -1.779081E-09  0.000000E+00  0.000000E+00  0.000000E+00  0.000000E+00  0.000000E+00  0.000000E+00  0.000000E+00  0.000000E+00  8.845318E-01 -1.996980E-01 -1.132880E-02 -8.616199E-01                                                                                                                                                                                                                                                                                                                                                                                                                                                                                              
  1.435000E+03  1.250000E+02 -5.425000E+03  9.758408E-07 -8.950287E-08 -1.191384E-08 -9.716545E-07  1.864051E-09 -1.721323E-10 -2.291124E-11 -1.855945E-09  0.000000E+00  0.000000E+00  0.000000E+00  0.000000E+00  0.000000E+00  0.000000E+00  0.000000E+00  0.000000E+00  9.058911E-01 -8.847969E-02 -1.177813E-02 -9.014828E-01                                                                                                                                                                                                                                                                                                                                                                                                                                                                                              
  1.250000E+02  1.250000E+02 -5.225000E+03  3.513819E-06  6.518855E-08 -7.650490E-09 -3.513206E-06  6.609197E-09  1.240331E-10 -1.455810E-11 -6.608017E-09  0.000000E+00  0.000000E+00  0.000000E+00  0.000000E+00  0.000000E+00  0.000000E+00  0.000000E+00  0.000000E+00  2.982302E+00  6.040094E-02 -7.087744E-03 -2.981682E+00                                                                                                                                                                                                                                                                                                                                                                                                                                                                                              
  3.750000E+02  1.250000E+02 -5.225000E+03  3.341542E-06  9.947132E-08 -8.075368E-09 -3.340052E-06  6.285837E-09  1.892663E-10 -1.536618E-11 -6.282968E-09  0.000000E+00  0.000000E+00  0.000000E+00  0.000000E+00  0.000000E+00  0.000000E+00  0.000000E+00  0.000000E+00  2.812844E+00  9.209455E-02 -7.464966E-03 -2.811326E+00                                                                                                                                                                                                                                                                                                                                                                                                                                                                                              
  6.250000E+02  1.250000E+02 -5.225000E+03  3.217146E-06 -2.792718E-08 -8.789384E-09 -3.217012E-06  6.052930E-09 -5.313351E-11 -1.672521E-11 -6.052673E-09  0.000000E+00  0.000000E+00  0.000000E+00  0.000000E+00  0.000000E+00  0.000000E+00  0.000000E+00  0.000000E+00  2.697501E+00 -2.576023E-02 -8.117885E-03 -2.697366E+00                                                                                                                                                                                                                                                                                                                                                                                                                                                                                              
  7.600000E+02  1.250000E+02 -5.225000E+03  3.240465E-06 -1.313586E-07 -9.239206E-09 -3.237788E-06  6.095828E-09 -2.499325E-10 -1.757869E-11 -6.090677E-09  0.000000E+00  0.000000E+00  0.000000E+00  0.000000E+00  0.000000E+00  0.000000E+00  0.000000E+00  0.000000E+00  2.718124E+00 -1.213261E-01 -8.533463E-03 -2.715402E+00                                                                                                                                                                                                                                                                                                                                                                                                                                                                                              
  7.800000E+02  1.250000E+02 -5.225000E+03  3.245793E-06 -1.450268E-07 -9.306677E-09 -3.242538E-06  6.105786E-09 -2.759350E-10 -1.770685E-11 -6.099522E-09  0.000000E+00  0.000000E+00  0.000000E+00  0.000000E+00  0.000000E+00  0.000000E+00  0.000000E+00  0.000000E+00  2.723427E+00 -1.339887E-01 -8.596502E-03 -2.720115E+00                                                                                                                                                                                                                                                                                                                                                                                                                                                                                              
  8.000000E+02  1.250000E+02 -5.225000E+03  3.253709E-06 -1.581168E-07 -9.375618E-09 -3.249852E-06  6.120797E-09 -3.008231E-10 -1.783818E-11 -6.113374E-09  0.000000E+00  0.000000E+00  0.000000E+00  0.000000E+00  0.000000E+00  0.000000E+00  0.000000E+00  0.000000E+00  2.732302E+00 -1.461579E-01 -8.662430E-03 -2.728377E+00                                                                                                                                                                                                                                                                                                                                                                                                                                                                                              
  9.350000E+02  1.250000E+02 -5.225000E+03  3.301628E-06 -2.200998E-07 -9.832995E-09 -3.294268E-06  6.210317E-09 -4.186170E-10 -1.870679E-11 -6.196164E-09  0.000000E+00  0.000000E+00  0.000000E+00  0.000000E+00  0.000000E+00  0.000000E+00  0.000000E+00  0.000000E+00  2.779413E+00 -2.036786E-01 -9.091907E-03 -2.771926E+00                                                                                                                                                                                                                                                                                                                                                                                                                                                                                              
  1.185000E+03  1.250000E+02 -5.225000E+03  3.460963E-06 -2.543469E-07 -1.060131E-08 -3.451589E-06  6.506549E-09 -4.836266E-10 -2.016038E-11 -6.488519E-09  0.000000E+00  0.000000E+00  0.000000E+00  0.000000E+00  0.000000E+00  0.000000E+00  0.000000E+00  0.000000E+00  2.930253E+00 -2.357695E-01 -9.815405E-03 -2.920736E+00                                                                                                                                                                                                                                                                                                                                                                                                                                                                                              
  1.435000E+03  1.250000E+02 -5.225000E+03  3.630127E-06 -1.164858E-07 -1.110133E-08 -3.628241E-06  6.822875E-09 -2.214634E-10 -2.110833E-11 -6.819247E-09  0.000000E+00  0.000000E+00  0.000000E+00  0.000000E+00  0.000000E+00  0.000000E+00  0.000000E+00  0.000000E+00  3.101636E+00 -1.081324E-01 -1.030495E-02 -3.099733E+00                                                                                                                                                                                                                                                                                                                                                                                                                                                                                              
  1.250000E+02  1.250000E+02 -4.975000E+03  6.968463E-06  1.674425E-07 -5.012399E-09 -6.966450E-06  1.267989E-08  3.103871E-10 -9.296878E-12 -1.267609E-08  0.000000E+00  0.000000E+00  0.000000E+00  0.000000E+00  0.000000E+00  0.000000E+00  0.000000E+00  0.000000E+00  4.950736E+00  1.374671E-01 -4.113919E-03 -4.948825E+00                                                                                                                                                                                                                                                                                                                                                                                                                                                                                              
  3.750000E+02  1.250000E+02 -4.975000E+03  6.476434E-06  2.812172E-07 -5.504541E-09 -6.470324E-06  1.178877E-08  5.212655E-10 -1.020513E-11 -1.177723E-08  0.000000E+00  0.000000E+00  0.000000E+00  0.000000E+00  0.000000E+00  0.000000E+00  0.000000E+00  0.000000E+00  4.502203E+00  2.298219E-01 -4.467654E-03 -4.496332E+00                                                                                                                                                                                                                                                                                                                                                                                                                                                                                              
  6.250000E+02  1.250000E+02 -4.975000E+03  6.132019E-06  3.128023E-08 -6.289986E-09 -6.131936E-06  1.116863E-08  5.796944E-11 -1.166075E-11 -1.116847E-08  0.000000E+00  0.000000E+00  0.000000E+00  0.000000E+00  0.000000E+00  0.000000E+00  0.000000E+00  0.000000E+00  4.215384E+00  2.574260E-02 -5.077896E-03 -4.215302E+00                                                                                                                                                                                                                                                                                                                                                                                                                                                                                              
  7.600000E+02  1.250000E+02 -4.975000E+03  6.181428E-06 -1.795181E-07 -6.751273E-09 -6.178817E-06  1.125590E-08 -3.327472E-10 -1.251371E-11 -1.125098E-08  0.000000E+00  0.000000E+00  0.000000E+00  0.000000E+00  0.000000E+00  0.000000E+00  0.000000E+00  0.000000E+00  4.254460E+00 -1.450004E-01 -5.452166E-03 -4.251985E+00                                                                                                                                                                                                                                                                                                                                                                                                                                                                                              
  7.800000E+02  1.250000E+02 -4.975000E+03  6.195833E-06 -2.080959E-07 -6.821825E-09 -6.192334E-06  1.128191E-08 -3.857225E-10 -1.264450E-11 -1.127531E-08  0.000000E+00  0.000000E+00  0.000000E+00  0.000000E+00  0.000000E+00  0.000000E+00  0.000000E+00  0.000000E+00  4.267199E+00 -1.682525E-01 -5.511146E-03 -4.263877E+00                                                                                                                                                                                                                                                                                                                                                                                                                                                                                              
  8.000000E+02  1.250000E+02 -4.975000E+03  6.222361E-06 -2.350985E-07 -6.897075E-09 -6.217914E-06  1.133050E-08 -4.357598E-10 -1.278486E-11 -1.132211E-08  0.000000E+00  0.000000E+00  0.000000E+00  0.000000E+00  0.000000E+00  0.000000E+00  0.000000E+00  0.000000E+00  4.292805E+00 -1.904729E-01 -5.577757E-03 -4.288574E+00                                                                                                                                                                                                                                                                                                                                                                                                                                                                                              
  9.350000E+02  1.250000E+02 -4.975000E+03  6.360364E-06 -3.480892E-07 -7.374985E-09 -6.350828E-06  1.157868E-08 -6.449780E-10 -1.367083E-11 -1.156069E-08  0.000000E+00  0.000000E+00  0.000000E+00  0.000000E+00  0.000000E+00  0.000000E+00  0.000000E+00  0.000000E+00  4.411245E+00 -2.837408E-01 -5.982183E-03 -4.402106E+00                                                                                                                                                                                                                                                                                                                                                                                                                                                                                              
  1.185000E+03  1.250000E+02 -4.975000E+03  6.719660E-06 -4.346433E-07 -8.216908E-09 -6.705583E-06  1.222522E-08 -8.052751E-10 -1.522806E-11 -1.219866E-08  0.000000E+00  0.000000E+00  0.000000E+00  0.000000E+00  0.000000E+00  0.000000E+00  0.000000E+00  0.000000E+00  4.733395E+00 -3.574777E-01 -6.716111E-03 -4.719872E+00                                                                                                                                                                                                                                                                                                                                                                                                                                                                                              
  1.435000E+03  1.250000E+02 -4.975000E+03  7.180830E-06 -2.105805E-07 -8.859082E-09 -7.177736E-06  1.306203E-08 -3.901728E-10 -1.642533E-11 -1.305619E-08  0.000000E+00  0.000000E+00  0.000000E+00  0.000000E+00  0.000000E+00  0.000000E+00  0.000000E+00  0.000000E+00  5.180859E+00 -1.743455E-01 -7.334216E-03 -5.177919E+00                                                                                                                                                                                                                                                                                                                                                                                                                                                                                              
  1.250000E+02  1.250000E+02 -4.725000E+03  1.088243E-05  3.063471E-07 -1.025212E-09 -1.087811E-05  1.887093E-08  5.409436E-10 -1.812531E-12 -1.886317E-08  0.000000E+00  0.000000E+00  0.000000E+00  0.000000E+00  0.000000E+00  0.000000E+00  0.000000E+00  0.000000E+00  5.834708E+00  1.980405E-01 -6.622490E-04 -5.831346E+00                                                                                                                                                                                                                                                                                                                                                                                                                                                                                              
  3.750000E+02  1.250000E+02 -4.725000E+03  9.778779E-06  5.435170E-07 -1.462024E-09 -9.763663E-06  1.694513E-08  9.597399E-10 -2.583190E-12 -1.691793E-08  0.000000E+00  0.000000E+00  0.000000E+00  0.000000E+00  0.000000E+00  0.000000E+00  0.000000E+00  0.000000E+00  4.960712E+00  3.462784E-01 -9.135946E-04 -4.948612E+00                                                                                                                                                                                                                                                                                                                                                                                                                                                                                              
  6.250000E+02  1.250000E+02 -4.725000E+03  8.986676E-06  1.361927E-07 -2.142829E-09 -8.985644E-06  1.558342E-08  2.403890E-10 -3.786981E-12 -1.558156E-08  0.000000E+00  0.000000E+00  0.000000E+00  0.000000E+00  0.000000E+00  0.000000E+00  0.000000E+00  0.000000E+00  4.421103E+00  8.613305E-02 -1.315685E-03 -4.420264E+00                                                                                                                                                                                                                                                                                                                                                                                                                                                                                              
  7.600000E+02  1.250000E+02 -4.725000E+03  8.986742E-06 -2.345503E-07 -2.442872E-09 -8.983681E-06  1.558519E-08 -4.144090E-10 -4.316254E-12 -1.557967E-08  0.000000E+00  0.000000E+00  0.000000E+00  0.000000E+00  0.000000E+00  0.000000E+00  0.000000E+00  0.000000E+00  4.434570E+00 -1.443561E-01 -1.502690E-03 -4.432220E+00                                                                                                                                                                                                                                                                                                                                                                                                                                                                                              
  7.800000E+02  1.250000E+02 -4.725000E+03  9.009004E-06 -2.997563E-07 -2.490036E-09 -9.004016E-06  1.562387E-08 -5.296293E-10 -4.399570E-12 -1.561489E-08  0.000000E+00  0.000000E+00  0.000000E+00  0.000000E+00  0.000000E+00  0.000000E+00  0.000000E+00  0.000000E+00  4.450973E+00 -1.848869E-01 -1.533139E-03 -4.447131E+00                                                                                                                                                                                                                                                                                                                                                                                                                                                                                              
  8.000000E+02  1.250000E+02 -4.725000E+03  9.047409E-06 -3.653137E-07 -2.543105E-09 -9.040031E-06  1.569177E-08 -6.453622E-10 -4.493739E-12 -1.567849E-08  0.000000E+00  0.000000E+00  0.000000E+00  0.000000E+00  0.000000E+00  0.000000E+00  0.000000E+00  0.000000E+00  4.480934E+00 -2.265111E-01 -1.569709E-03 -4.475205E+00                                                                                                                                                                                                                                                                                                                                                                                                                                                                                              
  9.350000E+02  1.250000E+02 -4.725000E+03  9.587644E-06 -4.836140E-07 -2.876904E-09 -9.575439E-06  1.661234E-08 -8.539041E-10 -5.082901E-12 -1.659038E-08  0.000000E+00  0.000000E+00  0.000000E+00  0.000000E+00  0.000000E+00  0.000000E+00  0.000000E+00  0.000000E+00  4.823649E+00 -3.048776E-01 -1.789676E-03 -4.814004E+00                                                                                                                                                                                                                                                                                                                                                                                                                                                                                              
  1.185000E+03  1.250000E+02 -4.725000E+03  1.015242E-05 -5.828012E-07 -3.496841E-09 -1.013568E-05  1.759775E-08 -1.028959E-09 -6.177400E-12 -1.756764E-08  0.000000E+00  0.000000E+00  0.000000E+00  0.000000E+00  0.000000E+00  0.000000E+00  0.000000E+00  0.000000E+00  5.288814E+00 -3.777870E-01 -2.225013E-03 -5.275303E+00                                                                                                                                                                                                                                                                                                                                                                                                                                                                                              