Title="TOUGHREACT V3.30-OMP flowvector.tec: Liq & Gas Fluxes (kg/s/m^2), Pore Velocities (m/s), & Heat Fluxes (J/s/m2)"                                                                                                                                                                                                                                                                                                                                                                                                                                                                                                                                                                                                                                                                                                         
Variables= "X(m)"     "Y(m)"      "Z(m)"     "FluxLiq"   "FluxLiq_X"   "FluxLiq_Y"   "FluxLiq_Z"   "PorVelLiq"  "PorVelLiqX"  "PorVelLiqY"  "PorVelLiqZ"     "FluxGas"   "FluxGas_X"   "FluxGas_Y"   "FluxGas_Z"   "PorVelGas"  "PorVelGasX"  "PorVelGasY"  "PorVelGasZ"    "HeatFlux"  "HeatFlux_X"  "HeatFlux_Y"  "HeatFlux_Z"                                                                                                                                                                                                                                                                                                                                                                                                                                                                                                
Zone T= "3.00000000E+09 sec" I=     9 J=    10 K=    23 F=Point
  1.250000E+02  1.250000E+02 -5.425000E+03  9.716260E-07  2.947603E-08 -2.500813E-09 -9.711756E-07  4.325280E-09  1.318583E-10 -1.118696E-11 -4.323255E-09  0.000000E+00  0.000000E+00  0.000000E+00  0.000000E+00  0.000000E+00  0.000000E+00  0.000000E+00  0.000000E+00  6.560437E-01  2.062104E-02 -1.749555E-03 -6.557172E-01                                                                                                                                                                                                                                                                                                                                                                                                                                                                                              
  3.750000E+02  1.250000E+02 -5.425000E+03  9.447263E-07  4.319259E-08 -2.667168E-09 -9.437346E-07  4.206390E-09  1.932250E-10 -1.193250E-11 -4.201933E-09  0.000000E+00  0.000000E+00  0.000000E+00  0.000000E+00  0.000000E+00  0.000000E+00  0.000000E+00  0.000000E+00  6.378970E-01  3.021689E-02 -1.865935E-03 -6.371782E-01                                                                                                                                                                                                                                                                                                                                                                                                                                                                                              
  6.250000E+02  1.250000E+02 -5.425000E+03  9.225366E-07 -2.377820E-08 -2.958108E-09 -9.222253E-07  4.108058E-09 -1.063780E-10 -1.323486E-11 -4.106659E-09  0.000000E+00  0.000000E+00  0.000000E+00  0.000000E+00  0.000000E+00  0.000000E+00  0.000000E+00  0.000000E+00  6.228838E-01 -1.663605E-02 -2.069514E-03 -6.226581E-01                                                                                                                                                                                                                                                                                                                                                                                                                                                                                              
  7.600000E+02  1.250000E+02 -5.425000E+03  9.292552E-07 -7.859345E-08 -3.133098E-09 -9.259203E-07  4.137737E-09 -3.516097E-10 -1.401668E-11 -4.122747E-09  0.000000E+00  0.000000E+00  0.000000E+00  0.000000E+00  0.000000E+00  0.000000E+00  0.000000E+00  0.000000E+00  6.275791E-01 -5.498525E-02 -2.191978E-03 -6.251619E-01                                                                                                                                                                                                                                                                                                                                                                                                                                                                                              
  7.800000E+02  1.250000E+02 -5.425000E+03  9.305996E-07 -8.570566E-08 -3.158931E-09 -9.266392E-07  4.143688E-09 -3.834224E-10 -1.413207E-11 -4.125886E-09  0.000000E+00  0.000000E+00  0.000000E+00  0.000000E+00  0.000000E+00  0.000000E+00  0.000000E+00  0.000000E+00  6.285199E-01 -5.996125E-02 -2.210058E-03 -6.256493E-01                                                                                                                                                                                                                                                                                                                                                                                                                                                                                              
  8.000000E+02  1.250000E+02 -5.425000E+03  9.321432E-07 -9.260432E-08 -3.184629E-09 -9.275264E-07  4.150520E-09 -4.142621E-10 -1.424684E-11 -4.129770E-09  0.000000E+00  0.000000E+00  0.000000E+00  0.000000E+00  0.000000E+00  0.000000E+00  0.000000E+00  0.000000E+00  6.295982E-01 -6.478847E-02 -2.228044E-03 -6.262518E-01                                                                                                                                                                                                                                                                                                                                                                                                                                                                                              
  9.350000E+02  1.250000E+02 -5.425000E+03  9.431470E-07 -1.266458E-07 -3.356877E-09 -9.345993E-07  4.199167E-09 -5.664180E-10 -1.501592E-11 -4.160763E-09  0.000000E+00  0.000000E+00  0.000000E+00  0.000000E+00  0.000000E+00  0.000000E+00  0.000000E+00  0.000000E+00  6.372463E-01 -8.860914E-02 -2.348603E-03 -6.310513E-01                                                                                                                                                                                                                                                                                                                                                                                                                                                                                              
  1.185000E+03  1.250000E+02 -5.425000E+03  9.743054E-07 -1.390656E-07 -3.602018E-09 -9.643230E-07  4.336263E-09 -6.218333E-10 -1.610759E-11 -4.291414E-09  0.000000E+00  0.000000E+00  0.000000E+00  0.000000E+00  0.000000E+00  0.000000E+00  0.000000E+00  0.000000E+00  6.584117E-01 -9.730340E-02 -2.520273E-03 -6.511772E-01                                                                                                                                                                                                                                                                                                                                                                                                                                                                                              
  1.435000E+03  1.250000E+02 -5.425000E+03  9.919897E-07 -6.041719E-08 -3.717962E-09 -9.901412E-07  4.413259E-09 -2.701200E-10 -1.662222E-11 -4.404954E-09  0.000000E+00  0.000000E+00  0.000000E+00  0.000000E+00  0.000000E+00  0.000000E+00  0.000000E+00  0.000000E+00  6.700025E-01 -4.227483E-02 -2.601535E-03 -6.686624E-01                                                                                                                                                                                                                                                                                                                                                                                                                                                                                              
  1.250000E+02  1.250000E+02 -5.225000E+03  3.596717E-06  5.058653E-08 -2.142201E-09 -3.596360E-06  1.584572E-08  2.247357E-10 -9.516727E-12 -1.584412E-08  0.000000E+00  0.000000E+00  0.000000E+00  0.000000E+00  0.000000E+00  0.000000E+00  0.000000E+00  0.000000E+00  2.361243E+00  3.416231E-02 -1.446696E-03 -2.360995E+00                                                                                                                                                                                                                                                                                                                                                                                                                                                                                              
  3.750000E+02  1.250000E+02 -5.225000E+03  3.471083E-06  8.114518E-08 -2.330519E-09 -3.470134E-06  1.529926E-08  3.605226E-10 -1.035544E-11 -1.529501E-08  0.000000E+00  0.000000E+00  0.000000E+00  0.000000E+00  0.000000E+00  0.000000E+00  0.000000E+00  0.000000E+00  2.277036E+00  5.479902E-02 -1.573855E-03 -2.276376E+00                                                                                                                                                                                                                                                                                                                                                                                                                                                                                              
  6.250000E+02  1.250000E+02 -5.225000E+03  3.374321E-06 -1.127048E-08 -2.664305E-09 -3.374301E-06  1.487709E-08 -5.008604E-11 -1.184005E-11 -1.487700E-08  0.000000E+00  0.000000E+00  0.000000E+00  0.000000E+00  0.000000E+00  0.000000E+00  0.000000E+00  0.000000E+00  2.211633E+00 -7.611879E-03 -1.799285E-03 -2.211619E+00                                                                                                                                                                                                                                                                                                                                                                                                                                                                                              
  7.600000E+02  1.250000E+02 -5.225000E+03  3.390137E-06 -8.886255E-08 -2.859398E-09 -3.388971E-06  1.494512E-08 -3.948676E-10 -1.270588E-11 -1.493990E-08  0.000000E+00  0.000000E+00  0.000000E+00  0.000000E+00  0.000000E+00  0.000000E+00  0.000000E+00  0.000000E+00  2.222181E+00 -6.001193E-02 -1.931063E-03 -2.221370E+00                                                                                                                                                                                                                                                                                                                                                                                                                                                                                              
  7.800000E+02  1.250000E+02 -5.225000E+03  3.393471E-06 -9.914155E-08 -2.888174E-09 -3.392021E-06  1.495954E-08 -4.405352E-10 -1.283356E-11 -1.495305E-08  0.000000E+00  0.000000E+00  0.000000E+00  0.000000E+00  0.000000E+00  0.000000E+00  0.000000E+00  0.000000E+00  2.224457E+00 -6.695409E-02 -1.950503E-03 -2.223448E+00                                                                                                                                                                                                                                                                                                                                                                                                                                                                                              
  8.000000E+02  1.250000E+02 -5.225000E+03  3.397768E-06 -1.091127E-07 -2.916782E-09 -3.396014E-06  1.497820E-08 -4.848092E-10 -1.296046E-11 -1.497034E-08  0.000000E+00  0.000000E+00  0.000000E+00  0.000000E+00  0.000000E+00  0.000000E+00  0.000000E+00  0.000000E+00  2.227473E+00 -7.368961E-02 -1.969833E-03 -2.226252E+00                                                                                                                                                                                                                                                                                                                                                                                                                                                                                              
  9.350000E+02  1.250000E+02 -5.225000E+03  3.431871E-06 -1.570585E-07 -3.108382E-09 -3.428274E-06  1.512628E-08 -6.976357E-10 -1.381015E-11 -1.511017E-08  0.000000E+00  0.000000E+00  0.000000E+00  0.000000E+00  0.000000E+00  0.000000E+00  0.000000E+00  0.000000E+00  2.251384E+00 -1.060770E-01 -2.099306E-03 -2.248883E+00                                                                                                                                                                                                                                                                                                                                                                                                                                                                                              
  1.185000E+03  1.250000E+02 -5.225000E+03  3.556864E-06 -1.793051E-07 -3.378008E-09 -3.552340E-06  1.566736E-08 -7.962310E-10 -1.500209E-11 -1.564710E-08  0.000000E+00  0.000000E+00  0.000000E+00  0.000000E+00  0.000000E+00  0.000000E+00  0.000000E+00  0.000000E+00  2.335209E+00 -1.211095E-01 -2.281584E-03 -2.332065E+00                                                                                                                                                                                                                                                                                                                                                                                                                                                                                              
  1.435000E+03  1.250000E+02 -5.225000E+03  3.664597E-06 -7.925117E-08 -3.490508E-09 -3.663738E-06  1.613290E-08 -3.518640E-10 -1.549686E-11 -1.612905E-08  0.000000E+00  0.000000E+00  0.000000E+00  0.000000E+00  0.000000E+00  0.000000E+00  0.000000E+00  0.000000E+00  2.407006E+00 -5.353139E-02 -2.357736E-03 -2.406410E+00                                                                                                                                                                                                                                                                                                                                                                                                                                                                                              
  1.250000E+02  1.250000E+02 -4.975000E+03  7.026293E-06  1.455001E-07 -1.118547E-09 -7.024786E-06  3.040270E-08  6.368871E-10 -4.896235E-12 -3.039603E-08  0.000000E+00  0.000000E+00  0.000000E+00  0.000000E+00  0.000000E+00  0.000000E+00  0.000000E+00  0.000000E+00  4.439221E+00  9.452477E-02 -7.266443E-04 -4.438214E+00                                                                                                                                                                                                                                                                                                                                                                                                                                                                                              
  3.750000E+02  1.250000E+02 -4.975000E+03  6.642995E-06  2.468093E-07 -1.392137E-09 -6.638408E-06  2.876043E-08  1.080544E-09 -6.096732E-12 -2.874013E-08  0.000000E+00  0.000000E+00  0.000000E+00  0.000000E+00  0.000000E+00  0.000000E+00  0.000000E+00  0.000000E+00  4.143995E+00  1.602659E-01 -9.033292E-04 -4.140895E+00                                                                                                                                                                                                                                                                                                                                                                                                                                                                                              
  6.250000E+02  1.250000E+02 -4.975000E+03  6.373950E-06  4.088753E-08 -1.903019E-09 -6.373818E-06  2.760042E-08  1.790024E-10 -8.336418E-12 -2.759983E-08  0.000000E+00  0.000000E+00  0.000000E+00  0.000000E+00  0.000000E+00  0.000000E+00  0.000000E+00  0.000000E+00  3.931287E+00  2.658057E-02 -1.233284E-03 -3.931197E+00                                                                                                                                                                                                                                                                                                                                                                                                                                                                                              
  7.600000E+02  1.250000E+02 -4.975000E+03  6.398643E-06 -1.336257E-07 -2.171631E-09 -6.397247E-06  2.770434E-08 -5.852888E-10 -9.511885E-12 -2.769815E-08  0.000000E+00  0.000000E+00  0.000000E+00  0.000000E+00  0.000000E+00  0.000000E+00  0.000000E+00  0.000000E+00  3.949414E+00 -8.660929E-02 -1.407482E-03 -3.948464E+00                                                                                                                                                                                                                                                                                                                                                                                                                                                                                              
  7.800000E+02  1.250000E+02 -4.975000E+03  6.406255E-06 -1.589910E-07 -2.211382E-09 -6.404281E-06  2.773701E-08 -6.963753E-10 -9.685813E-12 -2.772826E-08  0.000000E+00  0.000000E+00  0.000000E+00  0.000000E+00  0.000000E+00  0.000000E+00  0.000000E+00  0.000000E+00  3.955558E+00 -1.030623E-01 -1.433317E-03 -3.954215E+00                                                                                                                                                                                                                                                                                                                                                                                                                                                                                              
  8.000000E+02  1.250000E+02 -4.975000E+03  6.419581E-06 -1.836189E-07 -2.251138E-09 -6.416954E-06  2.779491E-08 -8.041735E-10 -9.859789E-12 -2.778328E-08  0.000000E+00  0.000000E+00  0.000000E+00  0.000000E+00  0.000000E+00  0.000000E+00  0.000000E+00  0.000000E+00  3.967383E+00 -1.190947E-01 -1.459258E-03 -3.965594E+00                                                                                                                                                                                                                                                                                                                                                                                                                                                                                              
  9.350000E+02  1.250000E+02 -4.975000E+03  6.531255E-06 -2.868210E-07 -2.518204E-09 -6.524953E-06  2.828022E-08 -1.255540E-09 -1.102823E-11 -2.825234E-08  0.000000E+00  0.000000E+00  0.000000E+00  0.000000E+00  0.000000E+00  0.000000E+00  0.000000E+00  0.000000E+00  4.066826E+00 -1.862395E-01 -1.633897E-03 -4.062559E+00                                                                                                                                                                                                                                                                                                                                                                                                                                                                                              
  1.185000E+03  1.250000E+02 -4.975000E+03  6.840519E-06 -3.499504E-07 -2.895794E-09 -6.831561E-06  2.960076E-08 -1.531145E-09 -1.267336E-11 -2.956113E-08  0.000000E+00  0.000000E+00  0.000000E+00  0.000000E+00  0.000000E+00  0.000000E+00  0.000000E+00  0.000000E+00  4.304717E+00 -2.273872E-01 -1.880953E-03 -4.298707E+00                                                                                                                                                                                                                                                                                                                                                                                                                                                                                              
  1.435000E+03  1.250000E+02 -4.975000E+03  7.139171E-06 -1.609614E-07 -2.977732E-09 -7.137356E-06  3.087064E-08 -7.040377E-10 -1.302424E-11 -3.086261E-08  0.000000E+00  0.000000E+00  0.000000E+00  0.000000E+00  0.000000E+00  0.000000E+00  0.000000E+00  0.000000E+00  4.530002E+00 -1.046288E-01 -1.935585E-03 -4.528793E+00                                                                                                                                                                                                                                                                                                                                                                                                                                                                                              
  1.250000E+02  1.250000E+02 -4.725000E+03  1.084272E-05  3.416903E-07  3.751667E-10 -1.083733E-05  4.582939E-08  1.459526E-09  1.604164E-12 -4.580614E-08  0.000000E+00  0.000000E+00  0.000000E+00  0.000000E+00  0.000000E+00  0.000000E+00  0.000000E+00  0.000000E+00  6.183404E+00  2.123236E-01  2.331660E-04 -6.179757E+00                                                                                                                                                                                                                                                                                                                                                                                                                                                                                              
  3.750000E+02  1.250000E+02 -4.725000E+03  9.828841E-06  5.537326E-07 -4.743360E-12 -9.813231E-06  4.138979E-08  2.364759E-09 -2.026834E-14 -4.132218E-08  0.000000E+00  0.000000E+00  0.000000E+00  0.000000E+00  0.000000E+00  0.000000E+00  0.000000E+00  0.000000E+00  5.046873E+00  3.413923E-01 -2.786391E-06 -5.035313E+00                                                                                                                                                                                                                                                                                                                                                                                                                                                                                              
  6.250000E+02  1.250000E+02 -4.725000E+03  9.290519E-06  1.410473E-07 -7.525292E-10 -9.289448E-06  3.904625E-08  6.021842E-10 -3.212588E-12 -3.904161E-08  0.000000E+00  0.000000E+00  0.000000E+00  0.000000E+00  0.000000E+00  0.000000E+00  0.000000E+00  0.000000E+00  4.507103E+00  8.661049E-02 -4.495070E-04 -4.506270E+00                                                                                                                                                                                                                                                                                                                                                                                                                                                                                              
  7.600000E+02  1.250000E+02 -4.725000E+03  9.259594E-06 -1.690096E-07 -1.056342E-09 -9.258052E-06  3.891979E-08 -7.214503E-10 -4.509282E-12 -3.891310E-08  0.000000E+00  0.000000E+00  0.000000E+00  0.000000E+00  0.000000E+00  0.000000E+00  0.000000E+00  0.000000E+00  4.501581E+00 -1.011216E-01 -6.316838E-04 -4.500445E+00                                                                                                                                                                                                                                                                                                                                                                                                                                                                                              
  7.800000E+02  1.250000E+02 -4.725000E+03  9.262254E-06 -2.236487E-07 -1.103147E-09 -9.259553E-06  3.893287E-08 -9.547327E-10 -4.709182E-12 -3.892117E-08  0.000000E+00  0.000000E+00  0.000000E+00  0.000000E+00  0.000000E+00  0.000000E+00  0.000000E+00  0.000000E+00  4.507737E+00 -1.339942E-01 -6.600525E-04 -4.505745E+00                                                                                                                                                                                                                                                                                                                                                                                                                                                                                              
  8.000000E+02  1.250000E+02 -4.725000E+03  9.270260E-06 -2.798134E-07 -1.152646E-09 -9.266036E-06  3.897082E-08 -1.194728E-09 -4.920982E-12 -3.895250E-08  0.000000E+00  0.000000E+00  0.000000E+00  0.000000E+00  0.000000E+00  0.000000E+00  0.000000E+00  0.000000E+00  4.520400E+00 -1.689056E-01 -6.906876E-04 -4.517243E+00                                                                                                                                                                                                                                                                                                                                                                                                                                                                                              
  9.350000E+02  1.250000E+02 -4.725000E+03  9.625961E-06 -4.775374E-07 -1.502746E-09 -9.614109E-06  4.051240E-08 -2.039428E-09 -6.421139E-12 -4.046103E-08  0.000000E+00  0.000000E+00  0.000000E+00  0.000000E+00  0.000000E+00  0.000000E+00  0.000000E+00  0.000000E+00  4.852640E+00 -2.931156E-01 -9.115157E-04 -4.843779E+00                                                                                                                                                                                                                                                                                                                                                                                                                                                                                              
  1.185000E+03  1.250000E+02 -4.725000E+03  1.021498E-05 -6.424920E-07 -2.096830E-09 -1.019476E-05  4.309584E-08 -2.744314E-09 -8.962667E-12 -4.300837E-08  0.000000E+00  0.000000E+00  0.000000E+00  0.000000E+00  0.000000E+00  0.000000E+00  0.000000E+00  0.000000E+00  5.537852E+00 -3.991343E-01 -1.293795E-03 -5.523450E+00                                                                                                                                                                                                                                                                                                                                                                                                                                                                                              