Title="TOUGHREACT V3.30-OMP flowvector.tec: Liq & Gas Fluxes (kg/s/m^2), Pore Velocities (m/s), & Heat Fluxes (J/s/m2)"                                                                                                                                                                                                                                                                                                                                                                                                                                                                                                                                                                                                                                                                                                         
Variables= "X(m)"     "Y(m)"      "Z(m)"     "FluxLiq"   "FluxLiq_X"   "FluxLiq_Y"   "FluxLiq_Z"   "PorVelLiq"  "PorVelLiqX"  "PorVelLiqY"  "PorVelLiqZ"     "FluxGas"   "FluxGas_X"   "FluxGas_Y"   "FluxGas_Z"   "PorVelGas"  "PorVelGasX"  "PorVelGasY"  "PorVelGasZ"    "HeatFlux"  "HeatFlux_X"  "HeatFlux_Y"  "HeatFlux_Z"                                                                                                                                                                                                                                                                                                                                                                                                                                                                                                
Zone T= "1.00000000E+10 sec" I=     9 J=    10 K=    23 F=Point
  1.250000E+02  1.250000E+02 -5.425000E+03  9.630184E-07  2.907893E-08 -5.038893E-09 -9.625660E-07  3.066303E-09  9.307102E-11 -1.612713E-11 -3.064848E-09  0.000000E+00  0.000000E+00  0.000000E+00  0.000000E+00  0.000000E+00  0.000000E+00  0.000000E+00  0.000000E+00  7.361497E-01  2.316894E-02 -4.014940E-03 -7.357741E-01                                                                                                                                                                                                                                                                                                                                                                                                                                                                                              
  3.750000E+02  1.250000E+02 -5.425000E+03  9.354908E-07  4.115833E-08 -5.329502E-09 -9.345697E-07  2.979198E-09  1.317375E-10 -1.705940E-11 -2.976235E-09  0.000000E+00  0.000000E+00  0.000000E+00  0.000000E+00  0.000000E+00  0.000000E+00  0.000000E+00  0.000000E+00  7.147806E-01  3.279405E-02 -4.246906E-03 -7.140153E-01                                                                                                                                                                                                                                                                                                                                                                                                                                                                                              
  6.250000E+02  1.250000E+02 -5.425000E+03  9.147519E-07 -2.586952E-08 -5.831081E-09 -9.143674E-07  2.913421E-09 -8.280611E-11 -1.866602E-11 -2.912184E-09  0.000000E+00  0.000000E+00  0.000000E+00  0.000000E+00  0.000000E+00  0.000000E+00  0.000000E+00  0.000000E+00  6.986873E-01 -2.061763E-02 -4.647030E-03 -6.983676E-01                                                                                                                                                                                                                                                                                                                                                                                                                                                                                              
  7.600000E+02  1.250000E+02 -5.425000E+03  9.210203E-07 -7.946147E-08 -6.160288E-09 -9.175654E-07  2.933223E-09 -2.543500E-10 -1.971825E-11 -2.922108E-09  0.000000E+00  0.000000E+00  0.000000E+00  0.000000E+00  0.000000E+00  0.000000E+00  0.000000E+00  0.000000E+00  7.036965E-01 -6.332549E-02 -4.909426E-03 -7.008241E-01                                                                                                                                                                                                                                                                                                                                                                                                                                                                                              
  7.800000E+02  1.250000E+02 -5.425000E+03  9.223019E-07 -8.650034E-08 -6.209341E-09 -9.182156E-07  2.937284E-09 -2.768766E-10 -1.987500E-11 -2.924138E-09  0.000000E+00  0.000000E+00  0.000000E+00  0.000000E+00  0.000000E+00  0.000000E+00  0.000000E+00  0.000000E+00  7.047302E-01 -6.893524E-02 -4.948525E-03 -7.013331E-01                                                                                                                                                                                                                                                                                                                                                                                                                                                                                              
  8.000000E+02  1.250000E+02 -5.425000E+03  9.238063E-07 -9.333673E-08 -6.258622E-09 -9.190577E-07  2.942056E-09 -2.987421E-10 -2.003245E-11 -2.926781E-09  0.000000E+00  0.000000E+00  0.000000E+00  0.000000E+00  0.000000E+00  0.000000E+00  0.000000E+00  0.000000E+00  7.059636E-01 -7.438388E-02 -4.987814E-03 -7.020162E-01                                                                                                                                                                                                                                                                                                                                                                                                                                                                                              
  9.350000E+02  1.250000E+02 -5.425000E+03  9.344629E-07 -1.275214E-07 -6.592249E-09 -9.256974E-07  2.975802E-09 -4.080613E-10 -2.109814E-11 -2.947616E-09  0.000000E+00  0.000000E+00  0.000000E+00  0.000000E+00  0.000000E+00  0.000000E+00  0.000000E+00  0.000000E+00  7.145809E-01 -1.016250E-01 -5.253751E-03 -7.072982E-01                                                                                                                                                                                                                                                                                                                                                                                                                                                                                              
  1.185000E+03  1.250000E+02 -5.425000E+03  9.639075E-07 -1.435509E-07 -7.165127E-09 -9.531314E-07  3.068477E-09 -4.592478E-10 -2.292425E-11 -3.033829E-09  0.000000E+00  0.000000E+00  0.000000E+00  0.000000E+00  0.000000E+00  0.000000E+00  0.000000E+00  0.000000E+00  7.374947E-01 -1.143951E-01 -5.710114E-03 -7.285462E-01                                                                                                                                                                                                                                                                                                                                                                                                                                                                                              
  1.435000E+03  1.250000E+02 -5.425000E+03  9.851382E-07 -6.437847E-08 -7.524284E-09 -9.830035E-07  3.134773E-09 -2.059294E-10 -2.406701E-11 -3.127909E-09  0.000000E+00  0.000000E+00  0.000000E+00  0.000000E+00  0.000000E+00  0.000000E+00  0.000000E+00  0.000000E+00  7.535178E-01 -5.130156E-02 -5.996058E-03 -7.517454E-01                                                                                                                                                                                                                                                                                                                                                                                                                                                                                              
  1.250000E+02  1.250000E+02 -5.225000E+03  3.569217E-06  5.021141E-08 -4.444563E-09 -3.568861E-06  1.123709E-08  1.594681E-10 -1.411567E-11 -1.123595E-08  0.000000E+00  0.000000E+00  0.000000E+00  0.000000E+00  0.000000E+00  0.000000E+00  0.000000E+00  0.000000E+00  2.630899E+00  3.839306E-02 -3.398343E-03 -2.630616E+00                                                                                                                                                                                                                                                                                                                                                                                                                                                                                              
  3.750000E+02  1.250000E+02 -5.225000E+03  3.441014E-06  7.788243E-08 -4.763188E-09 -3.440129E-06  1.083508E-08  2.473627E-10 -1.512977E-11 -1.083225E-08  0.000000E+00  0.000000E+00  0.000000E+00  0.000000E+00  0.000000E+00  0.000000E+00  0.000000E+00  0.000000E+00  2.522587E+00  5.954085E-02 -3.640189E-03 -2.521882E+00                                                                                                                                                                                                                                                                                                                                                                                                                                                                                              
  6.250000E+02  1.250000E+02 -5.225000E+03  3.352961E-06 -1.365328E-08 -5.286928E-09 -3.352929E-06  1.055879E-08 -4.336899E-11 -1.679463E-11 -1.055869E-08  0.000000E+00  0.000000E+00  0.000000E+00  0.000000E+00  0.000000E+00  0.000000E+00  0.000000E+00  0.000000E+00  2.449809E+00 -1.042429E-02 -4.039262E-03 -2.449784E+00                                                                                                                                                                                                                                                                                                                                                                                                                                                                                              
  7.600000E+02  1.250000E+02 -5.225000E+03  3.365619E-06 -8.774443E-08 -5.621593E-09 -3.364471E-06  1.059764E-08 -2.787110E-10 -1.785612E-11 -1.059396E-08  0.000000E+00  0.000000E+00  0.000000E+00  0.000000E+00  0.000000E+00  0.000000E+00  0.000000E+00  0.000000E+00  2.459639E+00 -6.703868E-02 -4.295031E-03 -2.458721E+00                                                                                                                                                                                                                                                                                                                                                                                                                                                                                              
  7.800000E+02  1.250000E+02 -5.225000E+03  3.368593E-06 -9.782134E-08 -5.671530E-09 -3.367168E-06  1.060688E-08 -3.107147E-10 -1.801450E-11 -1.060232E-08  0.000000E+00  0.000000E+00  0.000000E+00  0.000000E+00  0.000000E+00  0.000000E+00  0.000000E+00  0.000000E+00  2.462155E+00 -7.474295E-02 -4.333260E-03 -2.461016E+00                                                                                                                                                                                                                                                                                                                                                                                                                                                                                              
  8.000000E+02  1.250000E+02 -5.225000E+03  3.373142E-06 -1.075714E-07 -5.721901E-09 -3.371422E-06  1.062123E-08 -3.416651E-10 -1.817431E-11 -1.061572E-08  0.000000E+00  0.000000E+00  0.000000E+00  0.000000E+00  0.000000E+00  0.000000E+00  0.000000E+00  0.000000E+00  2.466498E+00 -8.220843E-02 -4.371993E-03 -2.465124E+00                                                                                                                                                                                                                                                                                                                                                                                                                                                                                              
  9.350000E+02  1.250000E+02 -5.225000E+03  3.405446E-06 -1.543385E-07 -6.062452E-09 -3.401942E-06  1.072250E-08 -4.900762E-10 -1.925428E-11 -1.071128E-08  0.000000E+00  0.000000E+00  0.000000E+00  0.000000E+00  0.000000E+00  0.000000E+00  0.000000E+00  0.000000E+00  2.495502E+00 -1.179908E-01 -4.633561E-03 -2.492707E+00                                                                                                                                                                                                                                                                                                                                                                                                                                                                                              
  1.185000E+03  1.250000E+02 -5.225000E+03  3.515714E-06 -1.839805E-07 -6.659407E-09 -3.510891E-06  1.106551E-08 -5.840443E-10 -2.114265E-11 -1.105007E-08  0.000000E+00  0.000000E+00  0.000000E+00  0.000000E+00  0.000000E+00  0.000000E+00  0.000000E+00  0.000000E+00  2.586236E+00 -1.407017E-01 -5.091767E-03 -2.582401E+00                                                                                                                                                                                                                                                                                                                                                                                                                                                                                              
  1.435000E+03  1.250000E+02 -5.225000E+03  3.644674E-06 -8.581213E-08 -7.050953E-09 -3.643657E-06  1.146764E-08 -2.723660E-10 -2.237918E-11 -1.146438E-08  0.000000E+00  0.000000E+00  0.000000E+00  0.000000E+00  0.000000E+00  0.000000E+00  0.000000E+00  0.000000E+00  2.694879E+00 -6.564297E-02 -5.393705E-03 -2.694074E+00                                                                                                                                                                                                                                                                                                                                                                                                                                                                                              
  1.250000E+02  1.250000E+02 -4.975000E+03  6.981811E-06  1.307763E-07 -2.865426E-09 -6.980586E-06  2.150033E-08  4.084788E-10 -8.953763E-12 -2.149644E-08  0.000000E+00  0.000000E+00  0.000000E+00  0.000000E+00  0.000000E+00  0.000000E+00  0.000000E+00  0.000000E+00  4.720127E+00  9.511452E-02 -2.083409E-03 -4.719168E+00                                                                                                                                                                                                                                                                                                                                                                                                                                                                                              
  3.750000E+02  1.250000E+02 -4.975000E+03  6.607188E-06  2.134174E-07 -3.285499E-09 -6.603739E-06  2.033708E-08  6.665719E-10 -1.026326E-11 -2.032615E-08  0.000000E+00  0.000000E+00  0.000000E+00  0.000000E+00  0.000000E+00  0.000000E+00  0.000000E+00  0.000000E+00  4.355799E+00  1.547671E-01 -2.370951E-03 -4.353048E+00                                                                                                                                                                                                                                                                                                                                                                                                                                                                                              
  6.250000E+02  1.250000E+02 -4.975000E+03  6.382975E-06  2.923608E-08 -3.878865E-09 -6.382906E-06  1.964233E-08  9.130887E-11 -1.211480E-11 -1.964211E-08  0.000000E+00  0.000000E+00  0.000000E+00  0.000000E+00  0.000000E+00  0.000000E+00  0.000000E+00  0.000000E+00  4.148639E+00  2.127893E-02 -2.786368E-03 -4.148583E+00                                                                                                                                                                                                                                                                                                                                                                                                                                                                                              
  7.600000E+02  1.250000E+02 -4.975000E+03  6.400844E-06 -1.176632E-07 -4.231165E-09 -6.399761E-06  1.969597E-08 -3.674629E-10 -1.321388E-11 -1.969253E-08  0.000000E+00  0.000000E+00  0.000000E+00  0.000000E+00  0.000000E+00  0.000000E+00  0.000000E+00  0.000000E+00  4.164324E+00 -8.456010E-02 -3.040293E-03 -4.163464E+00                                                                                                                                                                                                                                                                                                                                                                                                                                                                                              
  7.800000E+02  1.250000E+02 -4.975000E+03  6.407597E-06 -1.391825E-07 -4.284332E-09 -6.406083E-06  1.971682E-08 -4.346706E-10 -1.337989E-11 -1.971203E-08  0.000000E+00  0.000000E+00  0.000000E+00  0.000000E+00  0.000000E+00  0.000000E+00  0.000000E+00  0.000000E+00  4.170831E+00 -1.000844E-01 -3.079052E-03 -4.169628E+00                                                                                                                                                                                                                                                                                                                                                                                                                                                                                              
  8.000000E+02  1.250000E+02 -4.975000E+03  6.422671E-06 -1.598652E-07 -4.339452E-09 -6.420680E-06  1.976415E-08 -4.992668E-10 -1.355252E-11 -1.975784E-08  0.000000E+00  0.000000E+00  0.000000E+00  0.000000E+00  0.000000E+00  0.000000E+00  0.000000E+00  0.000000E+00  4.186632E+00 -1.151683E-01 -3.120397E-03 -4.185046E+00                                                                                                                                                                                                                                                                                                                                                                                                                                                                                              
  9.350000E+02  1.250000E+02 -4.975000E+03  6.519170E-06 -2.478686E-07 -4.709383E-09 -6.514455E-06  2.006494E-08 -7.739963E-10 -1.470970E-11 -2.005000E-08  0.000000E+00  0.000000E+00  0.000000E+00  0.000000E+00  0.000000E+00  0.000000E+00  0.000000E+00  0.000000E+00  4.283833E+00 -1.793910E-01 -3.396162E-03 -4.280073E+00                                                                                                                                                                                                                                                                                                                                                                                                                                                                                              
  1.185000E+03  1.250000E+02 -4.975000E+03  6.756141E-06 -3.308422E-07 -5.414486E-09 -6.748033E-06  2.079679E-08 -1.033008E-09 -1.691025E-11 -2.077111E-08  0.000000E+00  0.000000E+00  0.000000E+00  0.000000E+00  0.000000E+00  0.000000E+00  0.000000E+00  0.000000E+00  4.513234E+00 -2.407386E-01 -3.925125E-03 -4.506807E+00                                                                                                                                                                                                                                                                                                                                                                                                                                                                                              
  1.435000E+03  1.250000E+02 -4.975000E+03  7.123822E-06 -1.679146E-07 -5.977269E-09 -7.121840E-06  2.193664E-08 -5.242864E-10 -1.866989E-11 -2.193036E-08  0.000000E+00  0.000000E+00  0.000000E+00  0.000000E+00  0.000000E+00  0.000000E+00  0.000000E+00  0.000000E+00  4.880807E+00 -1.226179E-01 -4.364295E-03 -4.879264E+00                                                                                                                                                                                                                                                                                                                                                                                                                                                                                              
  1.250000E+02  1.250000E+02 -4.725000E+03  1.071367E-05  2.143134E-07 -5.924301E-10 -1.071153E-05  3.189638E-08  6.469855E-10 -1.791683E-12 -3.188982E-08  0.000000E+00  0.000000E+00  0.000000E+00  0.000000E+00  0.000000E+00  0.000000E+00  0.000000E+00  0.000000E+00  5.815652E+00  1.385193E-01 -3.822481E-04 -5.814002E+00                                                                                                                                                                                                                                                                                                                                                                                                                                                                                              
  3.750000E+02  1.250000E+02 -4.725000E+03  9.868260E-06  3.428942E-07 -1.035127E-09 -9.862301E-06  2.929933E-08  1.034515E-09 -3.122714E-12 -2.928106E-08  0.000000E+00  0.000000E+00  0.000000E+00  0.000000E+00  0.000000E+00  0.000000E+00  0.000000E+00  0.000000E+00  4.997014E+00  2.184579E-01 -6.429185E-04 -4.992237E+00                                                                                                                                                                                                                                                                                                                                                                                                                                                                                              
  6.250000E+02  1.250000E+02 -4.725000E+03  9.462301E-06  7.888419E-08 -1.484812E-09 -9.461972E-06  2.805467E-08  2.378021E-10 -4.473806E-12 -2.805366E-08  0.000000E+00  0.000000E+00  0.000000E+00  0.000000E+00  0.000000E+00  0.000000E+00  0.000000E+00  0.000000E+00  4.620554E+00  4.968040E-02 -9.027474E-04 -4.620287E+00                                                                                                                                                                                                                                                                                                                                                                                                                                                                                              
  7.600000E+02  1.250000E+02 -4.725000E+03  9.445750E-06 -1.163699E-07 -1.712526E-09 -9.445033E-06  2.800797E-08 -3.506145E-10 -5.159792E-12 -2.800577E-08  0.000000E+00  0.000000E+00  0.000000E+00  0.000000E+00  0.000000E+00  0.000000E+00  0.000000E+00  0.000000E+00  4.620743E+00 -7.090078E-02 -1.042620E-03 -4.620199E+00                                                                                                                                                                                                                                                                                                                                                                                                                                                                                              
  7.800000E+02  1.250000E+02 -4.725000E+03  9.452107E-06 -1.505311E-07 -1.748170E-09 -9.450908E-06  2.802813E-08 -4.535723E-10 -5.267372E-12 -2.802446E-08  0.000000E+00  0.000000E+00  0.000000E+00  0.000000E+00  0.000000E+00  0.000000E+00  0.000000E+00  0.000000E+00  4.628476E+00 -9.191697E-02 -1.065113E-03 -4.627563E+00                                                                                                                                                                                                                                                                                                                                                                                                                                                                                              
  8.000000E+02  1.250000E+02 -4.725000E+03  9.467240E-06 -1.855049E-07 -1.787594E-09 -9.465423E-06  2.807680E-08 -5.590754E-10 -5.386961E-12 -2.807123E-08  0.000000E+00  0.000000E+00  0.000000E+00  0.000000E+00  0.000000E+00  0.000000E+00  0.000000E+00  0.000000E+00  4.645744E+00 -1.141513E-01 -1.091498E-03 -4.644342E+00                                                                                                                                                                                                                                                                                                                                                                                                                                                                                              
  9.350000E+02  1.250000E+02 -4.725000E+03  9.750229E-06 -2.847797E-07 -2.057552E-09 -9.746069E-06  2.893722E-08 -8.587969E-10 -6.205268E-12 -2.892447E-08  0.000000E+00  0.000000E+00  0.000000E+00  0.000000E+00  0.000000E+00  0.000000E+00  0.000000E+00  0.000000E+00  4.890822E+00 -1.789200E-01 -1.271698E-03 -4.887548E+00                                                                                                                                                                                                                                                                                                                                                                                                                                                                                              
  1.185000E+03  1.250000E+02 -4.725000E+03  1.008054E-05 -4.249175E-07 -2.671842E-09 -1.007158E-05  2.996563E-08 -1.283018E-09 -8.068234E-12 -2.993815E-08  0.000000E+00  0.000000E+00  0.000000E+00  0.000000E+00  0.000000E+00  0.000000E+00  0.000000E+00  0.000000E+00  5.255597E+00 -2.753646E-01 -1.692554E-03 -5.248378E+00                                                                                                                                                                                                                                                                                                                                                                                                                                                                                              