Title="TOUGHREACT V3.30-OMP flowvector.tec: Liq & Gas Fluxes (kg/s/m^2), Pore Velocities (m/s), & Heat Fluxes (J/s/m2)"                                                                                                                                                                                                                                                                                                                                                                                                                                                                                                                                                                                                                                                                                                         
Variables= "X(m)"     "Y(m)"      "Z(m)"     "FluxLiq"   "FluxLiq_X"   "FluxLiq_Y"   "FluxLiq_Z"   "PorVelLiq"  "PorVelLiqX"  "PorVelLiqY"  "PorVelLiqZ"     "FluxGas"   "FluxGas_X"   "FluxGas_Y"   "FluxGas_Z"   "PorVelGas"  "PorVelGasX"  "PorVelGasY"  "PorVelGasZ"    "HeatFlux"  "HeatFlux_X"  "HeatFlux_Y"  "HeatFlux_Z"                                                                                                                                                                                                                                                                                                                                                                                                                                                                                                
Zone T= "2.30000000E+10 sec" I=     9 J=    10 K=    23 F=Point
  1.250000E+02  1.250000E+02 -5.425000E+03  9.451505E-07  3.410209E-08 -7.515825E-09 -9.445052E-07  1.976856E-09  7.178264E-11 -1.581963E-11 -1.975489E-09  0.000000E+00  0.000000E+00  0.000000E+00  0.000000E+00  0.000000E+00  0.000000E+00  0.000000E+00  0.000000E+00  8.469418E-01  3.240361E-02 -7.141850E-03 -8.462915E-01                                                                                                                                                                                                                                                                                                                                                                                                                                                                                              
  3.750000E+02  1.250000E+02 -5.425000E+03  9.116042E-07  4.619544E-08 -7.881233E-09 -9.103989E-07  1.906930E-09  9.724217E-11 -1.659125E-11 -1.904377E-09  0.000000E+00  0.000000E+00  0.000000E+00  0.000000E+00  0.000000E+00  0.000000E+00  0.000000E+00  0.000000E+00  8.152605E-01  4.389520E-02 -7.489841E-03 -8.140435E-01                                                                                                                                                                                                                                                                                                                                                                                                                                                                                              
  6.250000E+02  1.250000E+02 -5.425000E+03  8.868057E-07 -3.773397E-08 -8.507935E-09 -8.859617E-07  1.855191E-09 -7.943472E-11 -1.791180E-11 -1.853403E-09  0.000000E+00  0.000000E+00  0.000000E+00  0.000000E+00  0.000000E+00  0.000000E+00  0.000000E+00  0.000000E+00  7.923104E-01 -3.586661E-02 -8.086696E-03 -7.914568E-01                                                                                                                                                                                                                                                                                                                                                                                                                                                                                              
  7.600000E+02  1.250000E+02 -5.425000E+03  8.963486E-07 -1.040342E-07 -8.913725E-09 -8.902461E-07  1.875072E-09 -2.190054E-10 -1.876404E-11 -1.862144E-09  0.000000E+00  0.000000E+00  0.000000E+00  0.000000E+00  0.000000E+00  0.000000E+00  0.000000E+00  0.000000E+00  8.014767E-01 -9.887952E-02 -8.472330E-03 -7.953088E-01                                                                                                                                                                                                                                                                                                                                                                                                                                                                                              
  7.800000E+02  1.250000E+02 -5.425000E+03  8.982626E-07 -1.126756E-07 -8.974151E-09 -8.911226E-07  1.879074E-09 -2.371920E-10 -1.889092E-11 -1.863948E-09  0.000000E+00  0.000000E+00  0.000000E+00  0.000000E+00  0.000000E+00  0.000000E+00  0.000000E+00  0.000000E+00  8.033639E-01 -1.070953E-01 -8.529804E-03 -7.961478E-01                                                                                                                                                                                                                                                                                                                                                                                                                                                                                              
  8.000000E+02  1.250000E+02 -5.425000E+03  9.005079E-07 -1.210420E-07 -9.034868E-09 -8.922901E-07  1.883785E-09 -2.547858E-10 -1.901843E-11 -1.866379E-09  0.000000E+00  0.000000E+00  0.000000E+00  0.000000E+00  0.000000E+00  0.000000E+00  0.000000E+00  0.000000E+00  8.056716E-01 -1.150512E-01 -8.587680E-03 -7.973683E-01                                                                                                                                                                                                                                                                                                                                                                                                                                                                                              
  9.350000E+02  1.250000E+02 -5.425000E+03  9.153786E-07 -1.621733E-07 -9.444815E-09 -9.008488E-07  1.914834E-09 -3.412637E-10 -1.987879E-11 -1.884074E-09  0.000000E+00  0.000000E+00  0.000000E+00  0.000000E+00  0.000000E+00  0.000000E+00  0.000000E+00  0.000000E+00  8.202796E-01 -1.541390E-01 -8.977754E-03 -8.056173E-01                                                                                                                                                                                                                                                                                                                                                                                                                                                                                              
  1.185000E+03  1.250000E+02 -5.425000E+03  9.522697E-07 -1.797537E-07 -1.013367E-08 -9.350954E-07  1.991211E-09 -3.781458E-10 -2.131981E-11 -1.954859E-09  0.000000E+00  0.000000E+00  0.000000E+00  0.000000E+00  0.000000E+00  0.000000E+00  0.000000E+00  0.000000E+00  8.546334E-01 -1.708391E-01 -9.631618E-03 -8.373288E-01                                                                                                                                                                                                                                                                                                                                                                                                                                                                                              
  1.435000E+03  1.250000E+02 -5.425000E+03  9.751604E-07 -8.015365E-08 -1.055936E-08 -9.718034E-07  2.038121E-09 -1.685870E-10 -2.220814E-11 -2.031016E-09  0.000000E+00  0.000000E+00  0.000000E+00  0.000000E+00  0.000000E+00  0.000000E+00  0.000000E+00  0.000000E+00  8.755959E-01 -7.617736E-02 -1.003591E-02 -8.722181E-01                                                                                                                                                                                                                                                                                                                                                                                                                                                                                              
  1.250000E+02  1.250000E+02 -5.225000E+03  3.521899E-06  5.883692E-08 -6.689838E-09 -3.521401E-06  7.256417E-09  1.225482E-10 -1.393535E-11 -7.255369E-09  0.000000E+00  0.000000E+00  0.000000E+00  0.000000E+00  0.000000E+00  0.000000E+00  0.000000E+00  0.000000E+00  2.927046E+00  5.274968E-02 -5.996887E-03 -2.926565E+00                                                                                                                                                                                                                                                                                                                                                                                                                                                                                              
  3.750000E+02  1.250000E+02 -5.225000E+03  3.367359E-06  8.949318E-08 -7.075323E-09 -3.366162E-06  6.938051E-09  1.864034E-10 -1.473792E-11 -6.935531E-09  0.000000E+00  0.000000E+00  0.000000E+00  0.000000E+00  0.000000E+00  0.000000E+00  0.000000E+00  0.000000E+00  2.774693E+00  8.017753E-02 -6.329581E-03 -2.773527E+00                                                                                                                                                                                                                                                                                                                                                                                                                                                                                              
  6.250000E+02  1.250000E+02 -5.225000E+03  3.260419E-06 -2.314758E-08 -7.719793E-09 -3.260327E-06  6.718255E-09 -4.820950E-11 -1.608043E-11 -6.718063E-09  0.000000E+00  0.000000E+00  0.000000E+00  0.000000E+00  0.000000E+00  0.000000E+00  0.000000E+00  0.000000E+00  2.674885E+00 -2.066033E-02 -6.899898E-03 -2.674796E+00                                                                                                                                                                                                                                                                                                                                                                                                                                                                                              
  7.600000E+02  1.250000E+02 -5.225000E+03  3.278193E-06 -1.137810E-07 -8.129882E-09 -3.276208E-06  6.754023E-09 -2.369849E-10 -1.693263E-11 -6.749842E-09  0.000000E+00  0.000000E+00  0.000000E+00  0.000000E+00  0.000000E+00  0.000000E+00  0.000000E+00  0.000000E+00  2.690498E+00 -1.017014E-01 -7.266646E-03 -2.688565E+00                                                                                                                                                                                                                                                                                                                                                                                                                                                                                              
  7.800000E+02  1.250000E+02 -5.225000E+03  3.282460E-06 -1.259585E-07 -8.191343E-09 -3.280032E-06  6.762762E-09 -2.623455E-10 -1.706045E-11 -6.757650E-09  0.000000E+00  0.000000E+00  0.000000E+00  0.000000E+00  0.000000E+00  0.000000E+00  0.000000E+00  0.000000E+00  2.694752E+00 -1.126149E-01 -7.322095E-03 -2.692388E+00                                                                                                                                                                                                                                                                                                                                                                                                                                                                                              
  8.000000E+02  1.250000E+02 -5.225000E+03  3.289145E-06 -1.376454E-07 -8.254035E-09 -3.286254E-06  6.776684E-09 -2.866728E-10 -1.719115E-11 -6.770596E-09  0.000000E+00  0.000000E+00  0.000000E+00  0.000000E+00  0.000000E+00  0.000000E+00  0.000000E+00  0.000000E+00  2.702336E+00 -1.231246E-01 -7.379775E-03 -2.699519E+00                                                                                                                                                                                                                                                                                                                                                                                                                                                                                              
  9.350000E+02  1.250000E+02 -5.225000E+03  3.329665E-06 -1.935335E-07 -8.672090E-09 -3.324024E-06  6.859846E-09 -4.029626E-10 -1.806068E-11 -6.847977E-09  0.000000E+00  0.000000E+00  0.000000E+00  0.000000E+00  0.000000E+00  0.000000E+00  0.000000E+00  0.000000E+00  2.742903E+00 -1.733018E-01 -7.759260E-03 -2.737412E+00                                                                                                                                                                                                                                                                                                                                                                                                                                                                                              
  1.185000E+03  1.250000E+02 -5.225000E+03  3.467496E-06 -2.267150E-07 -9.386123E-09 -3.460063E-06  7.140989E-09 -4.719436E-10 -1.954107E-11 -7.125350E-09  0.000000E+00  0.000000E+00  0.000000E+00  0.000000E+00  0.000000E+00  0.000000E+00  0.000000E+00  0.000000E+00  2.873291E+00 -2.033272E-01 -8.408847E-03 -2.866075E+00                                                                                                                                                                                                                                                                                                                                                                                                                                                                                              
  1.435000E+03  1.250000E+02 -5.225000E+03  3.622280E-06 -1.048455E-07 -9.854816E-09 -3.620749E-06  7.458637E-09 -2.182284E-10 -2.051413E-11 -7.455415E-09  0.000000E+00  0.000000E+00  0.000000E+00  0.000000E+00  0.000000E+00  0.000000E+00  0.000000E+00  0.000000E+00  3.029516E+00 -9.414822E-02 -8.848988E-03 -3.028039E+00                                                                                                                                                                                                                                                                                                                                                                                                                                                                                              
  1.250000E+02  1.250000E+02 -4.975000E+03  6.953528E-06  1.472655E-07 -4.419186E-09 -6.951967E-06  1.389153E-08  2.994772E-10 -8.992409E-12 -1.388830E-08  0.000000E+00  0.000000E+00  0.000000E+00  0.000000E+00  0.000000E+00  0.000000E+00  0.000000E+00  0.000000E+00  4.912569E+00  1.189591E-01 -3.568443E-03 -4.911127E+00                                                                                                                                                                                                                                                                                                                                                                                                                                                                                              
  3.750000E+02  1.250000E+02 -4.975000E+03  6.514270E-06  2.429702E-07 -4.862393E-09 -6.509736E-06  1.301280E-08  4.940449E-10 -9.888175E-12 -1.300342E-08  0.000000E+00  0.000000E+00  0.000000E+00  0.000000E+00  0.000000E+00  0.000000E+00  0.000000E+00  0.000000E+00  4.495214E+00  1.953668E-01 -3.881123E-03 -4.490965E+00                                                                                                                                                                                                                                                                                                                                                                                                                                                                                              
  6.250000E+02  1.250000E+02 -4.975000E+03  6.232603E-06  2.743945E-08 -5.553399E-09 -6.232540E-06  1.245205E-08  5.578847E-11 -1.129110E-11 -1.245192E-08  0.000000E+00  0.000000E+00  0.000000E+00  0.000000E+00  0.000000E+00  0.000000E+00  0.000000E+00  0.000000E+00  4.246586E+00  2.222183E-02 -4.406742E-03 -4.246526E+00                                                                                                                                                                                                                                                                                                                                                                                                                                                                                              
  7.600000E+02  1.250000E+02 -4.975000E+03  6.264701E-06 -1.490931E-07 -5.969174E-09 -6.262924E-06  1.251439E-08 -3.030974E-10 -1.213485E-11 -1.251071E-08  0.000000E+00  0.000000E+00  0.000000E+00  0.000000E+00  0.000000E+00  0.000000E+00  0.000000E+00  0.000000E+00  4.273522E+00 -1.183793E-01 -4.738500E-03 -4.271880E+00                                                                                                                                                                                                                                                                                                                                                                                                                                                                                              
  7.800000E+02  1.250000E+02 -4.975000E+03  6.275470E-06 -1.738754E-07 -6.032717E-09 -6.273057E-06  1.253587E-08 -3.534855E-10 -1.226411E-11 -1.253088E-08  0.000000E+00  0.000000E+00  0.000000E+00  0.000000E+00  0.000000E+00  0.000000E+00  0.000000E+00  0.000000E+00  4.283632E+00 -1.381968E-01 -4.790584E-03 -4.281399E+00                                                                                                                                                                                                                                                                                                                                                                                                                                                                                              
  8.000000E+02  1.250000E+02 -4.975000E+03  6.297401E-06 -1.974085E-07 -6.100446E-09 -6.294303E-06  1.258028E-08 -4.013306E-10 -1.240271E-11 -1.257387E-08  0.000000E+00  0.000000E+00  0.000000E+00  0.000000E+00  0.000000E+00  0.000000E+00  0.000000E+00  0.000000E+00  4.305948E+00 -1.572487E-01 -4.849244E-03 -4.303073E+00                                                                                                                                                                                                                                                                                                                                                                                                                                                                                              
  9.350000E+02  1.250000E+02 -4.975000E+03  6.411595E-06 -2.986922E-07 -6.536009E-09 -6.404630E-06  1.280791E-08 -6.071322E-10 -1.328959E-11 -1.279351E-08  0.000000E+00  0.000000E+00  0.000000E+00  0.000000E+00  0.000000E+00  0.000000E+00  0.000000E+00  0.000000E+00  4.412085E+00 -2.394542E-01 -5.212801E-03 -4.405579E+00                                                                                                                                                                                                                                                                                                                                                                                                                                                                                              
  1.185000E+03  1.250000E+02 -4.975000E+03  6.715590E-06 -3.834801E-07 -7.327614E-09 -6.704628E-06  1.341212E-08 -7.795086E-10 -1.489863E-11 -1.338944E-08  0.000000E+00  0.000000E+00  0.000000E+00  0.000000E+00  0.000000E+00  0.000000E+00  0.000000E+00  0.000000E+00  4.697210E+00 -3.102307E-01 -5.890037E-03 -4.686950E+00                                                                                                                                                                                                                                                                                                                                                                                                                                                                                              
  1.435000E+03  1.250000E+02 -4.975000E+03  7.138750E-06 -1.891489E-07 -7.944909E-09 -7.136240E-06  1.425981E-08 -3.845398E-10 -1.616301E-11 -1.425461E-08  0.000000E+00  0.000000E+00  0.000000E+00  0.000000E+00  0.000000E+00  0.000000E+00  0.000000E+00  0.000000E+00  5.121255E+00 -1.540218E-01 -6.468662E-03 -5.118934E+00                                                                                                                                                                                                                                                                                                                                                                                                                                                                                              
  1.250000E+02  1.250000E+02 -4.725000E+03  1.077931E-05  2.486910E-07 -9.790415E-10 -1.077644E-05  2.058115E-08  4.828917E-10 -1.903636E-12 -2.057548E-08  0.000000E+00  0.000000E+00  0.000000E+00  0.000000E+00  0.000000E+00  0.000000E+00  0.000000E+00  0.000000E+00  5.788486E+00  1.610773E-01 -6.334828E-04 -5.786244E+00                                                                                                                                                                                                                                                                                                                                                                                                                                                                                              
  3.750000E+02  1.250000E+02 -4.725000E+03  9.809529E-06  4.194579E-07 -1.363068E-09 -9.800557E-06  1.870028E-08  8.142777E-10 -2.646975E-12 -1.868254E-08  0.000000E+00  0.000000E+00  0.000000E+00  0.000000E+00  0.000000E+00  0.000000E+00  0.000000E+00  0.000000E+00  4.971700E+00  2.678112E-01 -8.515544E-04 -4.964481E+00                                                                                                                                                                                                                                                                                                                                                                                                                                                                                              
  6.250000E+02  1.250000E+02 -4.725000E+03  9.239798E-06  1.006849E-07 -1.889451E-09 -9.239249E-06  1.760412E-08  1.953653E-10 -3.667781E-12 -1.760304E-08  0.000000E+00  0.000000E+00  0.000000E+00  0.000000E+00  0.000000E+00  0.000000E+00  0.000000E+00  0.000000E+00  4.531695E+00  6.371012E-02 -1.158107E-03 -4.531247E+00                                                                                                                                                                                                                                                                                                                                                                                                                                                                                              
  7.600000E+02  1.250000E+02 -4.725000E+03  9.230757E-06 -1.633123E-07 -2.142034E-09 -9.229312E-06  1.758877E-08 -3.169762E-10 -4.157603E-12 -1.758591E-08  0.000000E+00  0.000000E+00  0.000000E+00  0.000000E+00  0.000000E+00  0.000000E+00  0.000000E+00  0.000000E+00  4.537948E+00 -1.003317E-01 -1.315131E-03 -4.536839E+00                                                                                                                                                                                                                                                                                                                                                                                                                                                                                              
  7.800000E+02  1.250000E+02 -4.725000E+03  9.243041E-06 -2.098614E-07 -2.182010E-09 -9.240658E-06  1.761294E-08 -4.073446E-10 -4.235274E-12 -1.760823E-08  0.000000E+00  0.000000E+00  0.000000E+00  0.000000E+00  0.000000E+00  0.000000E+00  0.000000E+00  0.000000E+00  4.549179E+00 -1.292264E-01 -1.340885E-03 -4.547343E+00                                                                                                                                                                                                                                                                                                                                                                                                                                                                                              
  8.000000E+02  1.250000E+02 -4.725000E+03  9.267707E-06 -2.573798E-07 -2.227304E-09 -9.264132E-06  1.766238E-08 -4.995836E-10 -4.323706E-12 -1.765532E-08  0.000000E+00  0.000000E+00  0.000000E+00  0.000000E+00  0.000000E+00  0.000000E+00  0.000000E+00  0.000000E+00  4.572169E+00 -1.594565E-01 -1.372082E-03 -4.569388E+00                                                                                                                                                                                                                                                                                                                                                                                                                                                                                              
  9.350000E+02  1.250000E+02 -4.725000E+03  9.652620E-06 -3.670015E-07 -2.520082E-09 -9.645641E-06  1.839634E-08 -7.123009E-10 -4.893121E-12 -1.838254E-08  0.000000E+00  0.000000E+00  0.000000E+00  0.000000E+00  0.000000E+00  0.000000E+00  0.000000E+00  0.000000E+00  4.850179E+00 -2.315542E-01 -1.566968E-03 -4.844649E+00                                                                                                                                                                                                                                                                                                                                                                                                                                                                                              
  1.185000E+03  1.250000E+02 -4.725000E+03  1.011484E-05 -4.821996E-07 -3.108211E-09 -1.010334E-05  1.929635E-08 -9.362714E-10 -6.037497E-12 -1.927362E-08  0.000000E+00  0.000000E+00  0.000000E+00  0.000000E+00  0.000000E+00  0.000000E+00  0.000000E+00  0.000000E+00  5.266527E+00 -3.131978E-01 -1.978385E-03 -5.257205E+00                                                                                                                                                                                                                                                                                                                                                                                                                                                                                              