Title="TOUGHREACT V3.30-OMP flowvector.tec: Liq & Gas Fluxes (kg/s/m^2), Pore Velocities (m/s), & Heat Fluxes (J/s/m2)"                                                                                                                                                                                                                                                                                                                                                                                                                                                                                                                                                                                                                                                                                                         
Variables= "X(m)"     "Y(m)"      "Z(m)"     "FluxLiq"   "FluxLiq_X"   "FluxLiq_Y"   "FluxLiq_Z"   "PorVelLiq"  "PorVelLiqX"  "PorVelLiqY"  "PorVelLiqZ"     "FluxGas"   "FluxGas_X"   "FluxGas_Y"   "FluxGas_Z"   "PorVelGas"  "PorVelGasX"  "PorVelGasY"  "PorVelGasZ"    "HeatFlux"  "HeatFlux_X"  "HeatFlux_Y"  "HeatFlux_Z"                                                                                                                                                                                                                                                                                                                                                                                                                                                                                                
Zone T= "1.67000000E+10 sec" I=     9 J=    10 K=    23 F=Point
  1.250000E+02  1.250000E+02 -5.425000E+03  9.536893E-07  3.143125E-08 -6.145565E-09 -9.531514E-07  2.390537E-09  7.923559E-11 -1.549187E-11 -2.389173E-09  0.000000E+00  0.000000E+00  0.000000E+00  0.000000E+00  0.000000E+00  0.000000E+00  0.000000E+00  0.000000E+00  7.984387E-01  2.763695E-02 -5.403939E-03 -7.979419E-01                                                                                                                                                                                                                                                                                                                                                                                                                                                                                              
  3.750000E+02  1.250000E+02 -5.425000E+03  9.234395E-07  4.363458E-08 -6.468325E-09 -9.223853E-07  2.315050E-09  1.100034E-10 -1.630778E-11 -2.312378E-09  0.000000E+00  0.000000E+00  0.000000E+00  0.000000E+00  0.000000E+00  0.000000E+00  0.000000E+00  0.000000E+00  7.720631E-01  3.836801E-02 -5.688407E-03 -7.710881E-01                                                                                                                                                                                                                                                                                                                                                                                                                                                                                              
  6.250000E+02  1.250000E+02 -5.425000E+03  9.009897E-07 -3.070718E-08 -7.022876E-09 -9.004389E-07  2.258938E-09 -7.741742E-11 -1.770704E-11 -2.257542E-09  0.000000E+00  0.000000E+00  0.000000E+00  0.000000E+00  0.000000E+00  0.000000E+00  0.000000E+00  0.000000E+00  7.527069E-01 -2.700930E-02 -6.176876E-03 -7.521968E-01                                                                                                                                                                                                                                                                                                                                                                                                                                                                                              
  7.600000E+02  1.250000E+02 -5.425000E+03  9.085551E-07 -8.973542E-08 -7.384082E-09 -9.040826E-07  2.277787E-09 -2.262371E-10 -1.861602E-11 -2.266447E-09  0.000000E+00  0.000000E+00  0.000000E+00  0.000000E+00  0.000000E+00  0.000000E+00  0.000000E+00  0.000000E+00  7.594064E-01 -7.892367E-02 -6.494572E-03 -7.552661E-01                                                                                                                                                                                                                                                                                                                                                                                                                                                                                              
  7.800000E+02  1.250000E+02 -5.425000E+03  9.100940E-07 -9.746319E-08 -7.437877E-09 -9.048296E-07  2.281634E-09 -2.457157E-10 -1.875136E-11 -2.268287E-09  0.000000E+00  0.000000E+00  0.000000E+00  0.000000E+00  0.000000E+00  0.000000E+00  0.000000E+00  0.000000E+00  7.607962E-01 -8.572135E-02 -6.541901E-03 -7.559232E-01                                                                                                                                                                                                                                                                                                                                                                                                                                                                                              
  8.000000E+02  1.250000E+02 -5.425000E+03  9.119128E-07 -1.049558E-07 -7.491916E-09 -9.058217E-07  2.286194E-09 -2.645886E-10 -1.888731E-11 -2.270753E-09  0.000000E+00  0.000000E+00  0.000000E+00  0.000000E+00  0.000000E+00  0.000000E+00  0.000000E+00  0.000000E+00  7.624975E-01 -9.231294E-02 -6.589490E-03 -7.568601E-01                                                                                                                                                                                                                                                                                                                                                                                                                                                                                              
  9.350000E+02  1.250000E+02 -5.425000E+03  9.243367E-07 -1.420204E-07 -7.857306E-09 -9.133273E-07  2.317233E-09 -3.579336E-10 -1.980620E-11 -2.289336E-09  0.000000E+00  0.000000E+00  0.000000E+00  0.000000E+00  0.000000E+00  0.000000E+00  0.000000E+00  0.000000E+00  7.737586E-01 -1.249077E-01 -6.911046E-03 -7.635788E-01                                                                                                                                                                                                                                                                                                                                                                                                                                                                                              
  1.185000E+03  1.250000E+02 -5.425000E+03  9.568013E-07 -1.588045E-07 -8.477371E-09 -9.434925E-07  2.397747E-09 -4.001296E-10 -2.136149E-11 -2.364028E-09  0.000000E+00  0.000000E+00  0.000000E+00  0.000000E+00  0.000000E+00  0.000000E+00  0.000000E+00  0.000000E+00  8.018352E-01 -1.396610E-01 -7.455897E-03 -7.895435E-01                                                                                                                                                                                                                                                                                                                                                                                                                                                                                              
  1.435000E+03  1.250000E+02 -5.425000E+03  9.790007E-07 -7.110156E-08 -8.862991E-09 -9.763751E-07  2.452349E-09 -1.791207E-10 -2.232663E-11 -2.445697E-09  0.000000E+00  0.000000E+00  0.000000E+00  0.000000E+00  0.000000E+00  0.000000E+00  0.000000E+00  0.000000E+00  8.207033E-01 -6.252823E-02 -7.794554E-03 -8.182807E-01                                                                                                                                                                                                                                                                                                                                                                                                                                                                                              
  1.250000E+02  1.250000E+02 -5.225000E+03  3.543007E-06  5.404785E-08 -5.458856E-09 -3.542590E-06  8.766164E-09  1.350328E-10 -1.363921E-11 -8.765113E-09  0.000000E+00  0.000000E+00  0.000000E+00  0.000000E+00  0.000000E+00  0.000000E+00  0.000000E+00  0.000000E+00  2.808071E+00  4.526764E-02 -4.571576E-03 -2.807702E+00                                                                                                                                                                                                                                                                                                                                                                                                                                                                                              
  3.750000E+02  1.250000E+02 -5.225000E+03  3.403200E-06  8.294940E-08 -5.804549E-09 -3.402184E-06  8.420233E-09  2.072463E-10 -1.450353E-11 -8.417670E-09  0.000000E+00  0.000000E+00  0.000000E+00  0.000000E+00  0.000000E+00  0.000000E+00  0.000000E+00  0.000000E+00  2.675681E+00  6.944000E-02 -4.854311E-03 -2.674776E+00                                                                                                                                                                                                                                                                                                                                                                                                                                                                                              
  6.250000E+02  1.250000E+02 -5.225000E+03  3.307762E-06 -1.760870E-08 -6.377067E-09 -3.307709E-06  8.184437E-09 -4.399397E-11 -1.593447E-11 -8.184303E-09  0.000000E+00  0.000000E+00  0.000000E+00  0.000000E+00  0.000000E+00  0.000000E+00  0.000000E+00  0.000000E+00  2.589328E+00 -1.469638E-02 -5.329353E-03 -2.589281E+00                                                                                                                                                                                                                                                                                                                                                                                                                                                                                              
  7.600000E+02  1.250000E+02 -5.225000E+03  3.322284E-06 -9.857979E-08 -6.742328E-09 -3.320815E-06  8.219502E-09 -2.463026E-10 -1.684544E-11 -8.215794E-09  0.000000E+00  0.000000E+00  0.000000E+00  0.000000E+00  0.000000E+00  0.000000E+00  0.000000E+00  0.000000E+00  2.601562E+00 -8.238734E-02 -5.634787E-03 -2.600251E+00                                                                                                                                                                                                                                                                                                                                                                                                                                                                                              
  7.800000E+02  1.250000E+02 -5.225000E+03  3.325798E-06 -1.095605E-07 -6.796937E-09 -3.323986E-06  8.228130E-09 -2.737346E-10 -1.698168E-11 -8.223558E-09  0.000000E+00  0.000000E+00  0.000000E+00  0.000000E+00  0.000000E+00  0.000000E+00  0.000000E+00  0.000000E+00  2.604887E+00 -9.158011E-02 -5.680672E-03 -2.603271E+00                                                                                                                                                                                                                                                                                                                                                                                                                                                                                              
  8.000000E+02  1.250000E+02 -5.225000E+03  3.331415E-06 -1.201315E-07 -6.852343E-09 -3.329242E-06  8.242157E-09 -3.001314E-10 -1.712009E-11 -8.236673E-09  0.000000E+00  0.000000E+00  0.000000E+00  0.000000E+00  0.000000E+00  0.000000E+00  0.000000E+00  0.000000E+00  2.610969E+00 -1.004547E-01 -5.727797E-03 -2.609030E+00                                                                                                                                                                                                                                                                                                                                                                                                                                                                                              
  9.350000E+02  1.250000E+02 -5.225000E+03  3.367357E-06 -1.704979E-07 -7.224609E-09 -3.363030E-06  8.330903E-09 -4.258576E-10 -1.804897E-11 -8.319992E-09  0.000000E+00  0.000000E+00  0.000000E+00  0.000000E+00  0.000000E+00  0.000000E+00  0.000000E+00  0.000000E+00  2.646175E+00 -1.426857E-01 -6.042468E-03 -2.642319E+00                                                                                                                                                                                                                                                                                                                                                                                                                                                                                              
  1.185000E+03  1.250000E+02 -5.225000E+03  3.488201E-06 -2.017063E-07 -7.867908E-09 -3.482355E-06  8.627065E-09 -5.036908E-10 -1.964964E-11 -8.612326E-09  0.000000E+00  0.000000E+00  0.000000E+00  0.000000E+00  0.000000E+00  0.000000E+00  0.000000E+00  0.000000E+00  2.756102E+00 -1.689765E-01 -6.586618E-03 -2.750910E+00                                                                                                                                                                                                                                                                                                                                                                                                                                                                                              
  1.435000E+03  1.250000E+02 -5.225000E+03  3.628373E-06 -9.384903E-08 -8.290115E-09 -3.627150E-06  8.972394E-09 -2.343252E-10 -2.069997E-11 -8.969310E-09  0.000000E+00  0.000000E+00  0.000000E+00  0.000000E+00  0.000000E+00  0.000000E+00  0.000000E+00  0.000000E+00  2.890734E+00 -7.868397E-02 -6.950294E-03 -2.889654E+00                                                                                                                                                                                                                                                                                                                                                                                                                                                                                              
  1.250000E+02  1.250000E+02 -4.975000E+03  6.959282E-06  1.341379E-07 -3.617490E-09 -6.957988E-06  1.676451E-08  3.284396E-10 -8.862821E-12 -1.676129E-08  0.000000E+00  0.000000E+00  0.000000E+00  0.000000E+00  0.000000E+00  0.000000E+00  0.000000E+00  0.000000E+00  4.842467E+00  1.041689E-01 -2.808110E-03 -4.841345E+00                                                                                                                                                                                                                                                                                                                                                                                                                                                                                              
  3.750000E+02  1.250000E+02 -4.975000E+03  6.561450E-06  2.198276E-07 -4.027058E-09 -6.557765E-06  1.579911E-08  5.381790E-10 -9.859919E-12 -1.578994E-08  0.000000E+00  0.000000E+00  0.000000E+00  0.000000E+00  0.000000E+00  0.000000E+00  0.000000E+00  0.000000E+00  4.451193E+00  1.699862E-01 -3.092227E-03 -4.447945E+00                                                                                                                                                                                                                                                                                                                                                                                                                                                                                              
  6.250000E+02  1.250000E+02 -4.975000E+03  6.316582E-06  2.684217E-08 -4.644133E-09 -6.316523E-06  1.520745E-08  6.571020E-11 -1.136762E-11 -1.520731E-08  0.000000E+00  0.000000E+00  0.000000E+00  0.000000E+00  0.000000E+00  0.000000E+00  0.000000E+00  0.000000E+00  4.225884E+00  2.088038E-02 -3.545173E-03 -4.225831E+00                                                                                                                                                                                                                                                                                                                                                                                                                                                                                              
  7.600000E+02  1.250000E+02 -4.975000E+03  6.339517E-06 -1.290318E-07 -5.017066E-09 -6.338202E-06  1.526129E-08 -3.158056E-10 -1.227919E-11 -1.525801E-08  0.000000E+00  0.000000E+00  0.000000E+00  0.000000E+00  0.000000E+00  0.000000E+00  0.000000E+00  0.000000E+00  4.245925E+00 -9.855608E-02 -3.831290E-03 -4.244779E+00                                                                                                                                                                                                                                                                                                                                                                                                                                                                                              
  7.800000E+02  1.250000E+02 -4.975000E+03  6.347918E-06 -1.514525E-07 -5.073752E-09 -6.346109E-06  1.528157E-08 -3.706873E-10 -1.241799E-11 -1.527707E-08  0.000000E+00  0.000000E+00  0.000000E+00  0.000000E+00  0.000000E+00  0.000000E+00  0.000000E+00  0.000000E+00  4.254063E+00 -1.157844E-01 -3.875659E-03 -4.252485E+00                                                                                                                                                                                                                                                                                                                                                                                                                                                                                              
  8.000000E+02  1.250000E+02 -4.975000E+03  6.366304E-06 -1.728501E-07 -5.133595E-09 -6.363955E-06  1.532668E-08 -4.230700E-10 -1.256527E-11 -1.532084E-08  0.000000E+00  0.000000E+00  0.000000E+00  0.000000E+00  0.000000E+00  0.000000E+00  0.000000E+00  0.000000E+00  4.273342E+00 -1.324400E-01 -3.924713E-03 -4.271287E+00                                                                                                                                                                                                                                                                                                                                                                                                                                                                                              
  9.350000E+02  1.250000E+02 -4.975000E+03  6.469366E-06 -2.641242E-07 -5.526439E-09 -6.463970E-06  1.557661E-08 -6.464194E-10 -1.352901E-11 -1.556318E-08  0.000000E+00  0.000000E+00  0.000000E+00  0.000000E+00  0.000000E+00  0.000000E+00  0.000000E+00  0.000000E+00  4.374806E+00 -2.036210E-01 -4.239662E-03 -4.370063E+00                                                                                                                                                                                                                                                                                                                                                                                                                                                                                              
  1.185000E+03  1.250000E+02 -4.975000E+03  6.731257E-06 -3.449436E-07 -6.255207E-09 -6.722410E-06  1.620804E-08 -8.442970E-10 -1.531382E-11 -1.618603E-08  0.000000E+00  0.000000E+00  0.000000E+00  0.000000E+00  0.000000E+00  0.000000E+00  0.000000E+00  0.000000E+00  4.629384E+00 -2.681286E-01 -4.833872E-03 -4.621610E+00                                                                                                                                                                                                                                                                                                                                                                                                                                                                                              
  1.435000E+03  1.250000E+02 -4.975000E+03  7.117532E-06 -1.724012E-07 -6.832155E-09 -7.115441E-06  1.714611E-08 -4.220368E-10 -1.673539E-11 -1.714091E-08  0.000000E+00  0.000000E+00  0.000000E+00  0.000000E+00  0.000000E+00  0.000000E+00  0.000000E+00  0.000000E+00  5.027195E+00 -1.347823E-01 -5.340452E-03 -5.025385E+00                                                                                                                                                                                                                                                                                                                                                                                                                                                                                              
  1.250000E+02  1.250000E+02 -4.725000E+03  1.071796E-05  2.124835E-07 -8.537114E-10 -1.071585E-05  2.480271E-08  4.992359E-10 -2.009010E-12 -2.479769E-08  0.000000E+00  0.000000E+00  0.000000E+00  0.000000E+00  0.000000E+00  0.000000E+00  0.000000E+00  0.000000E+00  5.775273E+00  1.378831E-01 -5.532199E-04 -5.773626E+00                                                                                                                                                                                                                                                                                                                                                                                                                                                                                              
  3.750000E+02  1.250000E+02 -4.725000E+03  9.851236E-06  3.499788E-07 -1.206705E-09 -9.845017E-06  2.274589E-08  8.218916E-10 -2.834049E-12 -2.273104E-08  0.000000E+00  0.000000E+00  0.000000E+00  0.000000E+00  0.000000E+00  0.000000E+00  0.000000E+00  0.000000E+00  4.991264E+00  2.237578E-01 -7.531005E-04 -4.986246E+00                                                                                                                                                                                                                                                                                                                                                                                                                                                                                              
  6.250000E+02  1.250000E+02 -4.725000E+03  9.387702E-06  8.195850E-08 -1.649194E-09 -9.387344E-06  2.165098E-08  1.923484E-10 -3.869929E-12 -2.165013E-08  0.000000E+00  0.000000E+00  0.000000E+00  0.000000E+00  0.000000E+00  0.000000E+00  0.000000E+00  0.000000E+00  4.595715E+00  5.186856E-02 -1.008317E-03 -4.595422E+00                                                                                                                                                                                                                                                                                                                                                                                                                                                                                              
  7.600000E+02  1.250000E+02 -4.725000E+03  9.374705E-06 -1.295703E-07 -1.872758E-09 -9.373809E-06  2.162306E-08 -3.040221E-10 -4.394285E-12 -2.162093E-08  0.000000E+00  0.000000E+00  0.000000E+00  0.000000E+00  0.000000E+00  0.000000E+00  0.000000E+00  0.000000E+00  4.598487E+00 -7.939642E-02 -1.146748E-03 -4.597802E+00                                                                                                                                                                                                                                                                                                                                                                                                                                                                                              
  7.800000E+02  1.250000E+02 -4.725000E+03  9.383193E-06 -1.668064E-07 -1.908047E-09 -9.381710E-06  2.164371E-08 -3.914176E-10 -4.477221E-12 -2.164017E-08  0.000000E+00  0.000000E+00  0.000000E+00  0.000000E+00  0.000000E+00  0.000000E+00  0.000000E+00  0.000000E+00  4.607523E+00 -1.024547E-01 -1.169334E-03 -4.606383E+00                                                                                                                                                                                                                                                                                                                                                                                                                                                                                              
  8.000000E+02  1.250000E+02 -4.725000E+03  9.402112E-06 -2.049919E-07 -1.947811E-09 -9.399876E-06  2.169050E-08 -4.810830E-10 -4.571167E-12 -2.168516E-08  0.000000E+00  0.000000E+00  0.000000E+00  0.000000E+00  0.000000E+00  0.000000E+00  0.000000E+00  0.000000E+00  4.627267E+00 -1.267942E-01 -1.196539E-03 -4.625529E+00                                                                                                                                                                                                                                                                                                                                                                                                                                                                                              
  9.350000E+02  1.250000E+02 -4.725000E+03  9.717766E-06 -3.027371E-07 -2.212403E-09 -9.713049E-06  2.242974E-08 -7.106940E-10 -5.194767E-12 -2.241848E-08  0.000000E+00  0.000000E+00  0.000000E+00  0.000000E+00  0.000000E+00  0.000000E+00  0.000000E+00  0.000000E+00  4.879928E+00 -1.909872E-01 -1.373956E-03 -4.876189E+00                                                                                                                                                                                                                                                                                                                                                                                                                                                                                              
  1.185000E+03  1.250000E+02 -4.725000E+03  1.010370E-05 -4.172560E-07 -2.768146E-09 -1.009508E-05  2.335273E-08 -9.804325E-10 -6.505589E-12 -2.333214E-08  0.000000E+00  0.000000E+00  0.000000E+00  0.000000E+00  0.000000E+00  0.000000E+00  0.000000E+00  0.000000E+00  5.263172E+00 -2.714404E-01 -1.761510E-03 -5.256167E+00                                                                                                                                                                                                                                                                                                                                                                                                                                                                                              