Title="TOUGHREACT V3.30-OMP flowvector.tec: Liq & Gas Fluxes (kg/s/m^2), Pore Velocities (m/s), & Heat Fluxes (J/s/m2)"                                                                                                                                                                                                                                                                                                                                                                                                                                                                                                                                                                                                                                                                                                         
Variables= "X(m)"     "Y(m)"      "Z(m)"     "FluxLiq"   "FluxLiq_X"   "FluxLiq_Y"   "FluxLiq_Z"   "PorVelLiq"  "PorVelLiqX"  "PorVelLiqY"  "PorVelLiqZ"     "FluxGas"   "FluxGas_X"   "FluxGas_Y"   "FluxGas_Z"   "PorVelGas"  "PorVelGasX"  "PorVelGasY"  "PorVelGasZ"    "HeatFlux"  "HeatFlux_X"  "HeatFlux_Y"  "HeatFlux_Z"                                                                                                                                                                                                                                                                                                                                                                                                                                                                                                
Zone T= "1.33000000E+10 sec" I=     9 J=    10 K=    23 F=Point
  1.250000E+02  1.250000E+02 -5.425000E+03  9.583840E-07  3.017632E-08 -5.554744E-09 -9.578927E-07  2.692362E-09  8.523320E-11 -1.568885E-11 -2.690967E-09  0.000000E+00  0.000000E+00  0.000000E+00  0.000000E+00  0.000000E+00  0.000000E+00  0.000000E+00  0.000000E+00  7.683218E-01  2.530148E-02 -4.657602E-03 -7.678910E-01                                                                                                                                                                                                                                                                                                                                                                                                                                                                                              
  3.750000E+02  1.250000E+02 -5.425000E+03  9.296161E-07  4.236800E-08 -5.860138E-09 -9.286316E-07  2.611975E-09  1.196732E-10 -1.655363E-11 -2.609180E-09  0.000000E+00  0.000000E+00  0.000000E+00  0.000000E+00  0.000000E+00  0.000000E+00  0.000000E+00  0.000000E+00  7.445868E-01  3.552454E-02 -4.914232E-03 -7.437226E-01                                                                                                                                                                                                                                                                                                                                                                                                                                                                                              
  6.250000E+02  1.250000E+02 -5.425000E+03  9.081108E-07 -2.788751E-08 -6.385930E-09 -9.076600E-07  2.551763E-09 -7.877562E-11 -1.804000E-11 -2.550483E-09  0.000000E+00  0.000000E+00  0.000000E+00  0.000000E+00  0.000000E+00  0.000000E+00  0.000000E+00  0.000000E+00  7.269416E-01 -2.338993E-02 -5.355753E-03 -7.265454E-01                                                                                                                                                                                                                                                                                                                                                                                                                                                                                              
  7.600000E+02  1.250000E+02 -5.425000E+03  9.149493E-07 -8.387485E-08 -6.729563E-09 -9.110719E-07  2.570839E-09 -2.369272E-10 -1.900910E-11 -2.559828E-09  0.000000E+00  0.000000E+00  0.000000E+00  0.000000E+00  0.000000E+00  0.000000E+00  0.000000E+00  0.000000E+00  7.327032E-01 -7.034295E-02 -5.643973E-03 -7.292969E-01                                                                                                                                                                                                                                                                                                                                                                                                                                                                                              
  7.800000E+02  1.250000E+02 -5.425000E+03  9.163444E-07 -9.121348E-08 -6.780749E-09 -9.117682E-07  2.574744E-09 -2.576530E-10 -1.915342E-11 -2.561748E-09  0.000000E+00  0.000000E+00  0.000000E+00  0.000000E+00  0.000000E+00  0.000000E+00  0.000000E+00  0.000000E+00  7.338959E-01 -7.649811E-02 -5.686911E-03 -7.298759E-01                                                                                                                                                                                                                                                                                                                                                                                                                                                                                              
  8.000000E+02  1.250000E+02 -5.425000E+03  9.179900E-07 -9.833413E-08 -6.832165E-09 -9.126825E-07  2.579359E-09 -2.777503E-10 -1.929837E-11 -2.564288E-09  0.000000E+00  0.000000E+00  0.000000E+00  0.000000E+00  0.000000E+00  0.000000E+00  0.000000E+00  0.000000E+00  7.353409E-01 -8.247088E-02 -5.730062E-03 -7.306791E-01                                                                                                                                                                                                                                                                                                                                                                                                                                                                                              
  9.350000E+02  1.250000E+02 -5.425000E+03  9.294382E-07 -1.336874E-07 -7.180041E-09 -9.197454E-07  2.611380E-09 -3.775150E-10 -2.027879E-11 -2.583869E-09  0.000000E+00  0.000000E+00  0.000000E+00  0.000000E+00  0.000000E+00  0.000000E+00  0.000000E+00  0.000000E+00  7.451722E-01 -1.121172E-01 -6.021916E-03 -7.366648E-01                                                                                                                                                                                                                                                                                                                                                                                                                                                                                              
  1.185000E+03  1.250000E+02 -5.425000E+03  9.601419E-07 -1.499810E-07 -7.773464E-09 -9.483236E-07  2.696682E-09 -4.234215E-10 -2.194737E-11 -2.663142E-09  0.000000E+00  0.000000E+00  0.000000E+00  0.000000E+00  0.000000E+00  0.000000E+00  0.000000E+00  0.000000E+00  7.704276E-01 -1.257750E-01 -6.519247E-03 -7.600637E-01                                                                                                                                                                                                                                                                                                                                                                                                                                                                                              
  1.435000E+03  1.250000E+02 -5.425000E+03  9.818143E-07 -6.720989E-08 -8.143857E-09 -9.794774E-07  2.756415E-09 -1.897155E-10 -2.298674E-11 -2.749783E-09  0.000000E+00  0.000000E+00  0.000000E+00  0.000000E+00  0.000000E+00  0.000000E+00  0.000000E+00  0.000000E+00  7.878371E-01 -5.636055E-02 -6.829434E-03 -7.857889E-01                                                                                                                                                                                                                                                                                                                                                                                                                                                                                              
  1.250000E+02  1.250000E+02 -5.225000E+03  3.555757E-06  5.195709E-08 -4.920809E-09 -3.555374E-06  9.869372E-09  1.455411E-10 -1.378449E-11 -9.868289E-09  0.000000E+00  0.000000E+00  0.000000E+00  0.000000E+00  0.000000E+00  0.000000E+00  0.000000E+00  0.000000E+00  2.726010E+00  4.166726E-02 -3.946001E-03 -2.725689E+00                                                                                                                                                                                                                                                                                                                                                                                                                                                                                              
  3.750000E+02  1.250000E+02 -5.225000E+03  3.422344E-06  8.019952E-08 -5.251390E-09 -3.421401E-06  9.499574E-09  2.246624E-10 -1.471191E-11 -9.496906E-09  0.000000E+00  0.000000E+00  0.000000E+00  0.000000E+00  0.000000E+00  0.000000E+00  0.000000E+00  0.000000E+00  2.605355E+00  6.429517E-02 -4.207161E-03 -2.604558E+00                                                                                                                                                                                                                                                                                                                                                                                                                                                                                              
  6.250000E+02  1.250000E+02 -5.225000E+03  3.331097E-06 -1.533588E-08 -5.796569E-09 -3.331056E-06  9.246802E-09 -4.296217E-11 -1.624004E-11 -9.246688E-09  0.000000E+00  0.000000E+00  0.000000E+00  0.000000E+00  0.000000E+00  0.000000E+00  0.000000E+00  0.000000E+00  2.525769E+00 -1.226712E-02 -4.641567E-03 -2.525735E+00                                                                                                                                                                                                                                                                                                                                                                                                                                                                                              
  7.600000E+02  1.250000E+02 -5.225000E+03  3.344585E-06 -9.245849E-08 -6.144529E-09 -3.343301E-06  9.283323E-09 -2.590176E-10 -1.721327E-11 -9.279693E-09  0.000000E+00  0.000000E+00  0.000000E+00  0.000000E+00  0.000000E+00  0.000000E+00  0.000000E+00  0.000000E+00  2.536732E+00 -7.403791E-02 -4.920326E-03 -2.535647E+00                                                                                                                                                                                                                                                                                                                                                                                                                                                                                              
  7.800000E+02  1.250000E+02 -5.225000E+03  3.347809E-06 -1.029368E-07 -6.196490E-09 -3.346220E-06  9.292186E-09 -2.883681E-10 -1.735862E-11 -9.287694E-09  0.000000E+00  0.000000E+00  0.000000E+00  0.000000E+00  0.000000E+00  0.000000E+00  0.000000E+00  0.000000E+00  2.539638E+00 -8.243849E-02 -4.962081E-03 -2.538294E+00                                                                                                                                                                                                                                                                                                                                                                                                                                                                                              
  8.000000E+02  1.250000E+02 -5.225000E+03  3.352896E-06 -1.130465E-07 -6.249046E-09 -3.350984E-06  9.306395E-09 -3.166731E-10 -1.750574E-11 -9.300989E-09  0.000000E+00  0.000000E+00  0.000000E+00  0.000000E+00  0.000000E+00  0.000000E+00  0.000000E+00  0.000000E+00  2.544868E+00 -9.056140E-02 -5.004654E-03 -2.543252E+00                                                                                                                                                                                                                                                                                                                                                                                                                                                                                              
  9.350000E+02  1.250000E+02 -5.225000E+03  3.387012E-06 -1.611996E-07 -6.603378E-09 -3.383167E-06  9.400850E-09 -4.514475E-10 -1.849694E-11 -9.389986E-09  0.000000E+00  0.000000E+00  0.000000E+00  0.000000E+00  0.000000E+00  0.000000E+00  0.000000E+00  0.000000E+00  2.577172E+00 -1.292121E-01 -5.290778E-03 -2.573925E+00                                                                                                                                                                                                                                                                                                                                                                                                                                                                                              
  1.185000E+03  1.250000E+02 -5.225000E+03  3.501563E-06 -1.913715E-07 -7.219366E-09 -3.496322E-06  9.715535E-09 -5.358129E-10 -2.021554E-11 -9.700728E-09  0.000000E+00  0.000000E+00  0.000000E+00  0.000000E+00  0.000000E+00  0.000000E+00  0.000000E+00  0.000000E+00  2.677161E+00 -1.535007E-01 -5.788125E-03 -2.672750E+00                                                                                                                                                                                                                                                                                                                                                                                                                                                                                              
  1.435000E+03  1.250000E+02 -5.225000E+03  3.635184E-06 -8.916180E-08 -7.623309E-09 -3.634083E-06  1.008411E-08 -2.496044E-10 -2.134136E-11 -1.008099E-08  0.000000E+00  0.000000E+00  0.000000E+00  0.000000E+00  0.000000E+00  0.000000E+00  0.000000E+00  0.000000E+00  2.798833E+00 -7.155442E-02 -6.117778E-03 -2.797911E+00                                                                                                                                                                                                                                                                                                                                                                                                                                                                                              
  1.250000E+02  1.250000E+02 -4.975000E+03  6.968206E-06  1.309339E-07 -3.237595E-09 -6.966975E-06  1.887466E-08  3.601328E-10 -8.909680E-12 -1.887123E-08  0.000000E+00  0.000000E+00  0.000000E+00  0.000000E+00  0.000000E+00  0.000000E+00  0.000000E+00  0.000000E+00  4.789162E+00  9.873760E-02 -2.440544E-03 -4.788144E+00                                                                                                                                                                                                                                                                                                                                                                                                                                                                                              
  3.750000E+02  1.250000E+02 -4.975000E+03  6.585182E-06  2.142231E-07 -3.645678E-09 -6.581696E-06  1.782796E-08  5.891538E-10 -1.002741E-11 -1.781822E-08  0.000000E+00  0.000000E+00  0.000000E+00  0.000000E+00  0.000000E+00  0.000000E+00  0.000000E+00  0.000000E+00  4.410988E+00  1.609422E-01 -2.721977E-03 -4.408050E+00                                                                                                                                                                                                                                                                                                                                                                                                                                                                                              
  6.250000E+02  1.250000E+02 -4.975000E+03  6.352222E-06  2.760296E-08 -4.243627E-09 -6.352160E-06  1.719370E-08  7.590844E-11 -1.166916E-11 -1.719353E-08  0.000000E+00  0.000000E+00  0.000000E+00  0.000000E+00  0.000000E+00  0.000000E+00  0.000000E+00  0.000000E+00  4.194934E+00  2.083908E-02 -3.151317E-03 -4.194881E+00                                                                                                                                                                                                                                                                                                                                                                                                                                                                                              
  7.600000E+02  1.250000E+02 -4.975000E+03  6.372407E-06 -1.223667E-07 -4.602775E-09 -6.371230E-06  1.724700E-08 -3.364547E-10 -1.265552E-11 -1.724371E-08  0.000000E+00  0.000000E+00  0.000000E+00  0.000000E+00  0.000000E+00  0.000000E+00  0.000000E+00  0.000000E+00  4.212677E+00 -9.091758E-02 -3.419173E-03 -4.211695E+00                                                                                                                                                                                                                                                                                                                                                                                                                                                                                              
  7.800000E+02  1.250000E+02 -4.975000E+03  6.379936E-06 -1.441360E-07 -4.657170E-09 -6.378306E-06  1.726746E-08 -3.963162E-10 -1.280511E-11 -1.726291E-08  0.000000E+00  0.000000E+00  0.000000E+00  0.000000E+00  0.000000E+00  0.000000E+00  0.000000E+00  0.000000E+00  4.219982E+00 -1.071735E-01 -3.460385E-03 -4.218620E+00                                                                                                                                                                                                                                                                                                                                                                                                                                                                                              
  8.000000E+02  1.250000E+02 -4.975000E+03  6.396694E-06 -1.649744E-07 -4.714120E-09 -6.394565E-06  1.731374E-08 -4.536233E-10 -1.296238E-11 -1.730779E-08  0.000000E+00  0.000000E+00  0.000000E+00  0.000000E+00  0.000000E+00  0.000000E+00  0.000000E+00  0.000000E+00  4.237621E+00 -1.229273E-01 -3.505221E-03 -4.235836E+00                                                                                                                                                                                                                                                                                                                                                                                                                                                                                              
  9.350000E+02  1.250000E+02 -4.975000E+03  6.496377E-06 -2.533308E-07 -5.092239E-09 -6.491434E-06  1.758641E-08 -6.965107E-10 -1.400432E-11 -1.757261E-08  0.000000E+00  0.000000E+00  0.000000E+00  0.000000E+00  0.000000E+00  0.000000E+00  0.000000E+00  0.000000E+00  4.337302E+00 -1.898157E-01 -3.798798E-03 -4.333145E+00                                                                                                                                                                                                                                                                                                                                                                                                                                                                                              
  1.185000E+03  1.250000E+02 -4.975000E+03  6.743321E-06 -3.336965E-07 -5.801319E-09 -6.735056E-06  1.825708E-08 -9.175070E-10 -1.595448E-11 -1.823401E-08  0.000000E+00  0.000000E+00  0.000000E+00  0.000000E+00  0.000000E+00  0.000000E+00  0.000000E+00  0.000000E+00  4.578655E+00 -2.518132E-01 -4.355899E-03 -4.571723E+00                                                                                                                                                                                                                                                                                                                                                                                                                                                                                              
  1.435000E+03  1.250000E+02 -4.975000E+03  7.116067E-06 -1.678846E-07 -6.366560E-09 -7.114084E-06  1.927570E-08 -4.616456E-10 -1.751569E-11 -1.927016E-08  0.000000E+00  0.000000E+00  0.000000E+00  0.000000E+00  0.000000E+00  0.000000E+00  0.000000E+00  0.000000E+00  4.961802E+00 -1.273033E-01 -4.826857E-03 -4.960167E+00                                                                                                                                                                                                                                                                                                                                                                                                                                                                                              
  1.250000E+02  1.250000E+02 -4.725000E+03  1.070626E-05  2.066581E-07 -7.570330E-10 -1.070427E-05  2.794375E-08  5.472623E-10 -2.008167E-12 -2.793839E-08  0.000000E+00  0.000000E+00  0.000000E+00  0.000000E+00  0.000000E+00  0.000000E+00  0.000000E+00  0.000000E+00  5.784599E+00  1.340153E-01 -4.901619E-04 -5.783047E+00                                                                                                                                                                                                                                                                                                                                                                                                                                                                                              
  3.750000E+02  1.250000E+02 -4.725000E+03  9.865776E-06  3.370418E-07 -1.128877E-09 -9.860018E-06  2.568599E-08  8.920274E-10 -2.987648E-12 -2.567049E-08  0.000000E+00  0.000000E+00  0.000000E+00  0.000000E+00  0.000000E+00  0.000000E+00  0.000000E+00  0.000000E+00  4.997877E+00  2.153256E-01 -7.033818E-04 -4.993237E+00                                                                                                                                                                                                                                                                                                                                                                                                                                                                                              
  6.250000E+02  1.250000E+02 -4.725000E+03  9.432708E-06  7.836230E-08 -1.560847E-09 -9.432382E-06  2.452704E-08  2.072445E-10 -4.126506E-12 -2.452616E-08  0.000000E+00  0.000000E+00  0.000000E+00  0.000000E+00  0.000000E+00  0.000000E+00  0.000000E+00  0.000000E+00  4.613076E+00  4.952657E-02 -9.522456E-04 -4.612810E+00                                                                                                                                                                                                                                                                                                                                                                                                                                                                                              
  7.600000E+02  1.250000E+02 -4.725000E+03  9.418053E-06 -1.214882E-07 -1.781140E-09 -9.417269E-06  2.449113E-08 -3.211686E-10 -4.708726E-12 -2.448903E-08  0.000000E+00  0.000000E+00  0.000000E+00  0.000000E+00  0.000000E+00  0.000000E+00  0.000000E+00  0.000000E+00  4.614577E+00 -7.427934E-02 -1.088215E-03 -4.613979E+00                                                                                                                                                                                                                                                                                                                                                                                                                                                                                              
  7.800000E+02  1.250000E+02 -4.725000E+03  9.425424E-06 -1.566027E-07 -1.815783E-09 -9.424123E-06  2.451149E-08 -4.140267E-10 -4.800469E-12 -2.450799E-08  0.000000E+00  0.000000E+00  0.000000E+00  0.000000E+00  0.000000E+00  0.000000E+00  0.000000E+00  0.000000E+00  4.622930E+00 -9.597062E-02 -1.110262E-03 -4.621934E+00                                                                                                                                                                                                                                                                                                                                                                                                                                                                                              
  8.000000E+02  1.250000E+02 -4.725000E+03  9.442436E-06 -1.926007E-07 -1.854524E-09 -9.440471E-06  2.455920E-08 -5.092877E-10 -4.903609E-12 -2.455392E-08  0.000000E+00  0.000000E+00  0.000000E+00  0.000000E+00  0.000000E+00  0.000000E+00  0.000000E+00  0.000000E+00  4.641473E+00 -1.189085E-01 -1.136554E-03 -4.639949E+00                                                                                                                                                                                                                                                                                                                                                                                                                                                                                              
  9.350000E+02  1.250000E+02 -4.725000E+03  9.740618E-06 -2.880938E-07 -2.115995E-09 -9.736356E-06  2.535049E-08 -7.621583E-10 -5.598569E-12 -2.533903E-08  0.000000E+00  0.000000E+00  0.000000E+00  0.000000E+00  0.000000E+00  0.000000E+00  0.000000E+00  0.000000E+00  4.889747E+00 -1.815184E-01 -1.311898E-03 -4.886376E+00                                                                                                                                                                                                                                                                                                                                                                                                                                                                                              
  1.185000E+03  1.250000E+02 -4.725000E+03  1.009769E-05 -4.075963E-07 -2.679796E-09 -1.008946E-05  2.631920E-08 -1.079522E-09 -7.098271E-12 -2.629705E-08  0.000000E+00  0.000000E+00  0.000000E+00  0.000000E+00  0.000000E+00  0.000000E+00  0.000000E+00  0.000000E+00  5.262174E+00 -2.649626E-01 -1.702963E-03 -5.255499E+00                                                                                                                                                                                                                                                                                                                                                                                                                                                                                              