Title="TOUGHREACT V3.30-OMP flowvector.tec: Liq & Gas Fluxes (kg/s/m^2), Pore Velocities (m/s), & Heat Fluxes (J/s/m2)"                                                                                                                                                                                                                                                                                                                                                                                                                                                                                                                                                                                                                                                                                                         
Variables= "X(m)"     "Y(m)"      "Z(m)"     "FluxLiq"   "FluxLiq_X"   "FluxLiq_Y"   "FluxLiq_Z"   "PorVelLiq"  "PorVelLiqX"  "PorVelLiqY"  "PorVelLiqZ"     "FluxGas"   "FluxGas_X"   "FluxGas_Y"   "FluxGas_Z"   "PorVelGas"  "PorVelGasX"  "PorVelGasY"  "PorVelGasZ"    "HeatFlux"  "HeatFlux_X"  "HeatFlux_Y"  "HeatFlux_Z"                                                                                                                                                                                                                                                                                                                                                                                                                                                                                                
Zone T= "1.00000000E+09 sec" I=     9 J=    10 K=    23 F=Point
  1.250000E+02  1.250000E+02 -5.425000E+03  4.011412E-09 -7.959248E-10  1.985640E-09  3.393400E-09  2.289921E-11 -4.556565E-12  1.136756E-11  1.934916E-11  0.000000E+00  0.000000E+00  0.000000E+00  0.000000E+00  0.000000E+00  0.000000E+00  0.000000E+00  0.000000E+00  3.808826E-03 -7.557291E-04  1.885361E-03  3.222025E-03                                                                                                                                                                                                                                                                                                                                                                                                                                                                                              
  3.750000E+02  1.250000E+02 -5.425000E+03  4.129311E-09 -1.722995E-09  1.907378E-09  3.231781E-09  2.358192E-11 -9.863903E-12  1.091949E-11  1.842757E-11  0.000000E+00  0.000000E+00  0.000000E+00  0.000000E+00  0.000000E+00  0.000000E+00  0.000000E+00  0.000000E+00  3.920773E-03 -1.635981E-03  1.811051E-03  3.068570E-03                                                                                                                                                                                                                                                                                                                                                                                                                                                                                              
  6.250000E+02  1.250000E+02 -5.425000E+03  3.858264E-09 -1.368344E-09  1.818303E-09  3.115704E-09  2.203045E-11 -7.833563E-12  1.040952E-11  1.776565E-11  0.000000E+00  0.000000E+00  0.000000E+00  0.000000E+00  0.000000E+00  0.000000E+00  0.000000E+00  0.000000E+00  3.663416E-03 -1.299240E-03  1.726476E-03  2.958356E-03                                                                                                                                                                                                                                                                                                                                                                                                                                                                                              
  7.600000E+02  1.250000E+02 -5.425000E+03  3.685483E-09 -8.367676E-10  1.788864E-09  3.111683E-09  2.103875E-11 -4.790366E-12  1.024098E-11  1.774271E-11  0.000000E+00  0.000000E+00  0.000000E+00  0.000000E+00  0.000000E+00  0.000000E+00  0.000000E+00  0.000000E+00  3.499362E-03 -7.945098E-04  1.698524E-03  2.954539E-03                                                                                                                                                                                                                                                                                                                                                                                                                                                                                              
  7.800000E+02  1.250000E+02 -5.425000E+03  3.663727E-09 -7.444411E-10  1.784877E-09  3.111738E-09  2.091384E-11 -4.261811E-12  1.021815E-11  1.774302E-11  0.000000E+00  0.000000E+00  0.000000E+00  0.000000E+00  0.000000E+00  0.000000E+00  0.000000E+00  0.000000E+00  3.478704E-03 -7.068459E-04  1.694739E-03  2.954592E-03                                                                                                                                                                                                                                                                                                                                                                                                                                                                                              
  8.000000E+02  1.250000E+02 -5.425000E+03  3.644698E-09 -6.508420E-10  1.781287E-09  3.112434E-09  2.080455E-11 -3.725969E-12  1.019760E-11  1.774699E-11  0.000000E+00  0.000000E+00  0.000000E+00  0.000000E+00  0.000000E+00  0.000000E+00  0.000000E+00  0.000000E+00  3.460636E-03 -6.179737E-04  1.691330E-03  2.955252E-03                                                                                                                                                                                                                                                                                                                                                                                                                                                                                              
  9.350000E+02  1.250000E+02 -5.425000E+03  3.583301E-09  5.015489E-12  1.759857E-09  3.121366E-09  2.045165E-11  2.871296E-14  1.007491E-11  1.779791E-11  0.000000E+00  0.000000E+00  0.000000E+00  0.000000E+00  0.000000E+00  0.000000E+00  0.000000E+00  0.000000E+00  3.402340E-03  4.762201E-06  1.670982E-03  2.963733E-03                                                                                                                                                                                                                                                                                                                                                                                                                                                                                              
  1.185000E+03  1.250000E+02 -5.425000E+03  3.766439E-09  7.543544E-10  1.803683E-09  3.219277E-09  2.149937E-11  4.318564E-12  1.032582E-11  1.835621E-11  0.000000E+00  0.000000E+00  0.000000E+00  0.000000E+00  0.000000E+00  0.000000E+00  0.000000E+00  0.000000E+00  3.576229E-03  7.162586E-04  1.712595E-03  3.056699E-03                                                                                                                                                                                                                                                                                                                                                                                                                                                                                              
  1.435000E+03  1.250000E+02 -5.425000E+03  3.864641E-09  4.474442E-10  1.876312E-09  3.348836E-09  2.205815E-11  2.561551E-12  1.074162E-11  1.909498E-11  0.000000E+00  0.000000E+00  0.000000E+00  0.000000E+00  0.000000E+00  0.000000E+00  0.000000E+00  0.000000E+00  3.669471E-03  4.248477E-04  1.781555E-03  3.179714E-03                                                                                                                                                                                                                                                                                                                                                                                                                                                                                              
  1.250000E+02  1.250000E+02 -5.225000E+03  4.817805E-09 -9.026634E-10  2.115497E-09  4.233334E-09  2.740267E-11 -5.122946E-12  1.200626E-11  2.409380E-11  0.000000E+00  0.000000E+00  0.000000E+00  0.000000E+00  0.000000E+00  0.000000E+00  0.000000E+00  0.000000E+00  4.511551E-03 -8.259620E-04  1.935738E-03  3.990588E-03                                                                                                                                                                                                                                                                                                                                                                                                                                                                                              
  3.750000E+02  1.250000E+02 -5.225000E+03  4.579933E-09 -1.897906E-09  1.985526E-09  3.664890E-09  2.605246E-11 -1.077129E-11  1.126859E-11  2.087412E-11  0.000000E+00  0.000000E+00  0.000000E+00  0.000000E+00  0.000000E+00  0.000000E+00  0.000000E+00  0.000000E+00  4.280430E-03 -1.736637E-03  1.816811E-03  3.464877E-03                                                                                                                                                                                                                                                                                                                                                                                                                                                                                              
  6.250000E+02  1.250000E+02 -5.225000E+03  4.085178E-09 -1.431777E-09  1.855603E-09  3.345957E-09  2.324777E-11 -8.125830E-12  1.053119E-11  1.906630E-11  0.000000E+00  0.000000E+00  0.000000E+00  0.000000E+00  0.000000E+00  0.000000E+00  0.000000E+00  0.000000E+00  3.826514E-03 -1.310116E-03  1.697928E-03  3.169045E-03                                                                                                                                                                                                                                                                                                                                                                                                                                                                                              
  7.600000E+02  1.250000E+02 -5.225000E+03  3.914284E-09 -8.220544E-10  1.813573E-09  3.369985E-09  2.228035E-11 -4.665441E-12  1.029265E-11  1.920180E-11  0.000000E+00  0.000000E+00  0.000000E+00  0.000000E+00  0.000000E+00  0.000000E+00  0.000000E+00  0.000000E+00  3.674431E-03 -7.522029E-04  1.659470E-03  3.190892E-03                                                                                                                                                                                                                                                                                                                                                                                                                                                                                              
  7.800000E+02  1.250000E+02 -5.225000E+03  3.896237E-09 -7.193762E-10  1.807916E-09  3.375589E-09  2.217821E-11 -4.082707E-12  1.026055E-11  1.923346E-11  0.000000E+00  0.000000E+00  0.000000E+00  0.000000E+00  0.000000E+00  0.000000E+00  0.000000E+00  0.000000E+00  3.658489E-03 -6.582494E-04  1.654294E-03  3.196023E-03                                                                                                                                                                                                                                                                                                                                                                                                                                                                                              
  8.000000E+02  1.250000E+02 -5.225000E+03  3.882651E-09 -6.156821E-10  1.802864E-09  3.383134E-09  2.210134E-11 -3.494206E-12  1.023187E-11  1.927611E-11  0.000000E+00  0.000000E+00  0.000000E+00  0.000000E+00  0.000000E+00  0.000000E+00  0.000000E+00  0.000000E+00  3.646600E-03 -5.633665E-04  1.649671E-03  3.202951E-03                                                                                                                                                                                                                                                                                                                                                                                                                                                                                              
  9.350000E+02  1.250000E+02 -5.225000E+03  3.876753E-09  9.390349E-11  1.773070E-09  3.446247E-09  2.206811E-11  5.329344E-13  1.006278E-11  1.963308E-11  0.000000E+00  0.000000E+00  0.000000E+00  0.000000E+00  0.000000E+00  0.000000E+00  0.000000E+00  0.000000E+00  3.643319E-03  8.592434E-05  1.622409E-03  3.261008E-03                                                                                                                                                                                                                                                                                                                                                                                                                                                                                              
  1.185000E+03  1.250000E+02 -5.225000E+03  4.256313E-09  9.132646E-10  1.851138E-09  3.722289E-09  2.421934E-11  5.183092E-12  1.050586E-11  2.119762E-11  0.000000E+00  0.000000E+00  0.000000E+00  0.000000E+00  0.000000E+00  0.000000E+00  0.000000E+00  0.000000E+00  3.992056E-03  8.356628E-04  1.693844E-03  3.516970E-03                                                                                                                                                                                                                                                                                                                                                                                                                                                                                              
  1.435000E+03  1.250000E+02 -5.225000E+03  4.612576E-09  5.375350E-10  1.983078E-09  4.129686E-09  2.623927E-11  3.050698E-12  1.125468E-11  2.350584E-11  0.000000E+00  0.000000E+00  0.000000E+00  0.000000E+00  0.000000E+00  0.000000E+00  0.000000E+00  0.000000E+00  4.324293E-03  4.918597E-04  1.814573E-03  3.894215E-03                                                                                                                                                                                                                                                                                                                                                                                                                                                                                              
  1.250000E+02  1.250000E+02 -4.975000E+03  1.031283E-08 -1.266137E-09  2.591182E-09 -9.901368E-09  5.760497E-11 -7.113023E-12  1.455705E-11 -5.527956E-11  0.000000E+00  0.000000E+00  0.000000E+00  0.000000E+00  0.000000E+00  0.000000E+00  0.000000E+00  0.000000E+00  8.541437E-03 -1.105571E-03  2.262579E-03 -8.161776E-03                                                                                                                                                                                                                                                                                                                                                                                                                                                                                              
  3.750000E+02  1.250000E+02 -4.975000E+03  1.127001E-08 -2.425244E-09  2.196932E-09 -1.078447E-08  6.298140E-11 -1.362474E-11  1.234213E-11 -6.023866E-11  0.000000E+00  0.000000E+00  0.000000E+00  0.000000E+00  0.000000E+00  0.000000E+00  0.000000E+00  0.000000E+00  9.375844E-03 -2.117684E-03  1.918326E-03 -8.929832E-03                                                                                                                                                                                                                                                                                                                                                                                                                                                                                              
  6.250000E+02  1.250000E+02 -4.975000E+03  1.107913E-08 -1.531664E-09  1.897958E-09 -1.080735E-08  6.191368E-11 -8.604689E-12  1.066248E-11 -6.037860E-11  0.000000E+00  0.000000E+00  0.000000E+00  0.000000E+00  0.000000E+00  0.000000E+00  0.000000E+00  0.000000E+00  9.215256E-03 -1.337424E-03  1.657266E-03 -8.965808E-03                                                                                                                                                                                                                                                                                                                                                                                                                                                                                              
  7.600000E+02  1.250000E+02 -4.975000E+03  1.073424E-08 -6.789364E-10  1.802212E-09 -1.056007E-08  5.997892E-11 -3.814173E-12  1.012459E-11 -5.899505E-11  0.000000E+00  0.000000E+00  0.000000E+00  0.000000E+00  0.000000E+00  0.000000E+00  0.000000E+00  0.000000E+00  8.917850E-03 -5.928363E-04  1.573663E-03 -8.757864E-03                                                                                                                                                                                                                                                                                                                                                                                                                                                                                              
  7.800000E+02  1.250000E+02 -4.975000E+03  1.067814E-08 -5.470878E-10  1.789195E-09 -1.051295E-08  5.966456E-11 -3.073465E-12  1.005146E-11 -5.873144E-11  0.000000E+00  0.000000E+00  0.000000E+00  0.000000E+00  0.000000E+00  0.000000E+00  0.000000E+00  0.000000E+00  8.869969E-03 -4.777082E-04  1.562296E-03 -8.718221E-03                                                                                                                                                                                                                                                                                                                                                                                                                                                                                              
  8.000000E+02  1.250000E+02 -4.975000E+03  1.061848E-08 -4.168702E-10  1.777470E-09 -1.046035E-08  5.933033E-11 -2.341920E-12  9.985592E-12 -5.843707E-11  0.000000E+00  0.000000E+00  0.000000E+00  0.000000E+00  0.000000E+00  0.000000E+00  0.000000E+00  0.000000E+00  8.819188E-03 -3.640043E-04  1.552058E-03 -8.673909E-03                                                                                                                                                                                                                                                                                                                                                                                                                                                                                              
  9.350000E+02  1.250000E+02 -4.975000E+03  1.027322E-08  3.591427E-10  1.708212E-09 -1.012384E-08  5.739727E-11  2.017615E-12  9.596503E-12 -5.655336E-11  0.000000E+00  0.000000E+00  0.000000E+00  0.000000E+00  0.000000E+00  0.000000E+00  0.000000E+00  0.000000E+00  8.526950E-03  3.135976E-04  1.491583E-03 -8.389619E-03                                                                                                                                                                                                                                                                                                                                                                                                                                                                                              
  1.185000E+03  1.250000E+02 -4.975000E+03  1.039305E-08  1.323398E-09  1.937730E-09 -1.012469E-08  5.806363E-11  7.434682E-12  1.088593E-11 -5.654739E-11  0.000000E+00  0.000000E+00  0.000000E+00  0.000000E+00  0.000000E+00  0.000000E+00  0.000000E+00  0.000000E+00  8.622423E-03  1.155571E-03  1.691996E-03 -8.375439E-03                                                                                                                                                                                                                                                                                                                                                                                                                                                                                              
  1.435000E+03  1.250000E+02 -4.975000E+03  1.019413E-08  7.880936E-10  2.370779E-09 -9.883249E-09  5.693861E-11  4.427412E-12  1.331878E-11 -5.518164E-11  0.000000E+00  0.000000E+00  0.000000E+00  0.000000E+00  0.000000E+00  0.000000E+00  0.000000E+00  0.000000E+00  8.438507E-03  6.881511E-04  2.070128E-03 -8.151651E-03                                                                                                                                                                                                                                                                                                                                                                                                                                                                                              
  1.250000E+02  1.250000E+02 -4.725000E+03  4.635707E-08 -1.694406E-09  3.290982E-09 -4.620905E-08  2.502315E-10 -9.425953E-12  1.830784E-11 -2.493828E-10  0.000000E+00  0.000000E+00  0.000000E+00  0.000000E+00  0.000000E+00  0.000000E+00  0.000000E+00  0.000000E+00  2.372613E-02 -1.408706E-03  2.736129E-03 -2.352570E-02                                                                                                                                                                                                                                                                                                                                                                                                                                                                                              
  3.750000E+02  1.250000E+02 -4.725000E+03  4.647268E-08 -2.631681E-09  1.903295E-09 -4.635905E-08  2.493637E-10 -1.463997E-11  1.058798E-11 -2.487084E-10  0.000000E+00  0.000000E+00  0.000000E+00  0.000000E+00  0.000000E+00  0.000000E+00  0.000000E+00  0.000000E+00  1.942740E-02 -2.187942E-03  1.582373E-03 -1.923884E-02                                                                                                                                                                                                                                                                                                                                                                                                                                                                                              
  6.250000E+02  1.250000E+02 -4.725000E+03  4.441568E-08 -8.886191E-10  1.221486E-09 -4.438999E-08  2.381351E-10 -4.943345E-12  6.795073E-12 -2.379868E-10  0.000000E+00  0.000000E+00  0.000000E+00  0.000000E+00  0.000000E+00  0.000000E+00  0.000000E+00  0.000000E+00  1.777573E-02 -7.387845E-04  1.015525E-03 -1.773131E-02                                                                                                                                                                                                                                                                                                                                                                                                                                                                                              
  7.600000E+02  1.250000E+02 -4.725000E+03  4.481901E-08  2.783557E-10  1.002894E-09 -4.480692E-08  2.402894E-10  1.548478E-12  5.579058E-12 -2.402196E-10  0.000000E+00  0.000000E+00  0.000000E+00  0.000000E+00  0.000000E+00  0.000000E+00  0.000000E+00  0.000000E+00  1.805957E-02  2.314205E-04  8.337900E-04 -1.803883E-02                                                                                                                                                                                                                                                                                                                                                                                                                                                                                              
  7.800000E+02  1.250000E+02 -4.725000E+03  4.383088E-08  5.737057E-10  9.621523E-10 -4.381656E-08  2.348955E-10  3.191495E-12  5.352412E-12 -2.348128E-10  0.000000E+00  0.000000E+00  0.000000E+00  0.000000E+00  0.000000E+00  0.000000E+00  0.000000E+00  0.000000E+00  1.721811E-02  4.769694E-04  7.999170E-04 -1.719291E-02                                                                                                                                                                                                                                                                                                                                                                                                                                                                                              
  8.000000E+02  1.250000E+02 -4.725000E+03  4.234584E-08  6.980739E-10  9.184030E-10 -4.233012E-08  2.268574E-10  3.883348E-12  5.109033E-12 -2.267666E-10  0.000000E+00  0.000000E+00  0.000000E+00  0.000000E+00  0.000000E+00  0.000000E+00  0.000000E+00  0.000000E+00  1.615010E-02  5.803665E-04  7.635441E-04 -1.612160E-02                                                                                                                                                                                                                                                                                                                                                                                                                                                                                              
  9.350000E+02  1.250000E+02 -4.725000E+03  4.114376E-08  6.902657E-10  6.863682E-10 -4.113224E-08  2.203279E-10  3.839914E-12  3.818234E-12 -2.202613E-10  0.000000E+00  0.000000E+00  0.000000E+00  0.000000E+00  0.000000E+00  0.000000E+00  0.000000E+00  0.000000E+00  1.532611E-02  5.738751E-04  5.706352E-04 -1.530473E-02                                                                                                                                                                                                                                                                                                                                                                                                                                                                                              
  1.185000E+03  1.250000E+02 -4.725000E+03  4.343571E-08  1.054346E-09  1.327891E-09 -4.340260E-08  2.327111E-10  5.865293E-12  7.387007E-12 -2.325198E-10  0.000000E+00  0.000000E+00  0.000000E+00  0.000000E+00  0.000000E+00  0.000000E+00  0.000000E+00  0.000000E+00  1.685586E-02  8.765670E-04  1.103988E-03 -1.679681E-02                                                                                                                                                                                                                                                                                                                                                                                                                                                                                              