Title="TOUGHREACT V3.30-OMP flowvector.tec: Liq & Gas Fluxes (kg/s/m^2), Pore Velocities (m/s), & Heat Fluxes (J/s/m2)"                                                                                                                                                                                                                                                                                                                                                                                                                                                                                                                                                                                                                                                                                                         
Variables= "X(m)"     "Y(m)"      "Z(m)"     "FluxLiq"   "FluxLiq_X"   "FluxLiq_Y"   "FluxLiq_Z"   "PorVelLiq"  "PorVelLiqX"  "PorVelLiqY"  "PorVelLiqZ"     "FluxGas"   "FluxGas_X"   "FluxGas_Y"   "FluxGas_Z"   "PorVelGas"  "PorVelGasX"  "PorVelGasY"  "PorVelGasZ"    "HeatFlux"  "HeatFlux_X"  "HeatFlux_Y"  "HeatFlux_Z"                                                                                                                                                                                                                                                                                                                                                                                                                                                                                                
Zone T= "1.00000000E+07 sec" I=     9 J=    10 K=    23 F=Point
  1.250000E+02  1.250000E+02 -5.425000E+03  2.679716E-07  1.226111E-15 -5.890967E-16  2.679716E-07  1.515493E-09  6.960667E-18 -3.344319E-18  1.515493E-09  0.000000E+00  0.000000E+00  0.000000E+00  0.000000E+00  0.000000E+00  0.000000E+00  0.000000E+00  0.000000E+00  2.546050E-01  1.164952E-09 -5.597123E-10  2.546050E-01                                                                                                                                                                                                                                                                                                                                                                                                                                                                                              
  3.750000E+02  1.250000E+02 -5.425000E+03  2.679716E-07  3.299342E-15 -6.668445E-16  2.679716E-07  1.515493E-09  1.873046E-17 -3.785696E-18  1.515493E-09  0.000000E+00  0.000000E+00  0.000000E+00  0.000000E+00  0.000000E+00  0.000000E+00  0.000000E+00  0.000000E+00  2.546050E-01  3.134770E-09 -6.335820E-10  2.546050E-01                                                                                                                                                                                                                                                                                                                                                                                                                                                                                              
  6.250000E+02  1.250000E+02 -5.425000E+03  2.679716E-07  2.904538E-15 -4.788819E-16  2.679716E-07  1.515493E-09  1.648915E-17 -2.718627E-18  1.515493E-09  0.000000E+00  0.000000E+00  0.000000E+00  0.000000E+00  0.000000E+00  0.000000E+00  0.000000E+00  0.000000E+00  2.546051E-01  2.759659E-09 -4.549951E-10  2.546051E-01                                                                                                                                                                                                                                                                                                                                                                                                                                                                                              
  7.600000E+02  1.250000E+02 -5.425000E+03  2.679716E-07  1.404856E-15 -4.761090E-16  2.679716E-07  1.515493E-09  7.975407E-18 -2.702885E-18  1.515493E-09  0.000000E+00  0.000000E+00  0.000000E+00  0.000000E+00  0.000000E+00  0.000000E+00  0.000000E+00  0.000000E+00  2.546051E-01  1.334781E-09 -4.523605E-10  2.546051E-01                                                                                                                                                                                                                                                                                                                                                                                                                                                                                              
  7.800000E+02  1.250000E+02 -5.425000E+03  2.679716E-07  8.772285E-16 -4.772084E-16  2.679716E-07  1.515493E-09  4.980052E-18 -2.709126E-18  1.515493E-09  0.000000E+00  0.000000E+00  0.000000E+00  0.000000E+00  0.000000E+00  0.000000E+00  0.000000E+00  0.000000E+00  2.546051E-01  8.334720E-10 -4.534051E-10  2.546051E-01                                                                                                                                                                                                                                                                                                                                                                                                                                                                                              
  8.000000E+02  1.250000E+02 -5.425000E+03  2.679716E-07  3.399665E-16 -4.774614E-16  2.679716E-07  1.515493E-09  1.930000E-18 -2.710562E-18  1.515493E-09  0.000000E+00  0.000000E+00  0.000000E+00  0.000000E+00  0.000000E+00  0.000000E+00  0.000000E+00  0.000000E+00  2.546051E-01  3.230089E-10 -4.536454E-10  2.546051E-01                                                                                                                                                                                                                                                                                                                                                                                                                                                                                              
  9.350000E+02  1.250000E+02 -5.425000E+03  2.679716E-07 -1.269673E-15 -4.617289E-16  2.679716E-07  1.515493E-09 -7.207971E-18 -2.621249E-18  1.515493E-09  0.000000E+00  0.000000E+00  0.000000E+00  0.000000E+00  0.000000E+00  0.000000E+00  0.000000E+00  0.000000E+00  2.546051E-01 -1.206341E-09 -4.386977E-10  2.546051E-01                                                                                                                                                                                                                                                                                                                                                                                                                                                                                              
  1.185000E+03  1.250000E+02 -5.425000E+03  2.679716E-07 -2.227151E-15 -4.191238E-16  2.679716E-07  1.515493E-09 -1.264360E-17 -2.379378E-18  1.515493E-09  0.000000E+00  0.000000E+00  0.000000E+00  0.000000E+00  0.000000E+00  0.000000E+00  0.000000E+00  0.000000E+00  2.546050E-01 -2.116060E-09 -3.982177E-10  2.546050E-01                                                                                                                                                                                                                                                                                                                                                                                                                                                                                              
  1.435000E+03  1.250000E+02 -5.425000E+03  2.679716E-07 -9.211909E-16 -3.893226E-16  2.679716E-07  1.515493E-09 -5.229628E-18 -2.210196E-18  1.515493E-09  0.000000E+00  0.000000E+00  0.000000E+00  0.000000E+00  0.000000E+00  0.000000E+00  0.000000E+00  0.000000E+00  2.546050E-01 -8.752415E-10 -3.699030E-10  2.546050E-01                                                                                                                                                                                                                                                                                                                                                                                                                                                                                              
  1.250000E+02  1.250000E+02 -5.225000E+03  6.104470E-07  8.636885E-15 -4.678754E-15  6.104470E-07  3.435913E-09  4.865428E-17 -2.635689E-17  3.435913E-09  0.000000E+00  0.000000E+00  0.000000E+00  0.000000E+00  0.000000E+00  0.000000E+00  0.000000E+00  0.000000E+00  5.684458E-01  7.914747E-09 -4.287560E-09  5.684458E-01                                                                                                                                                                                                                                                                                                                                                                                                                                                                                              
  3.750000E+02  1.250000E+02 -5.225000E+03  6.104471E-07  2.457096E-14 -5.208326E-15  6.104471E-07  3.435914E-09  1.384159E-16 -2.934013E-17  3.435914E-09  0.000000E+00  0.000000E+00  0.000000E+00  0.000000E+00  0.000000E+00  0.000000E+00  0.000000E+00  0.000000E+00  5.684459E-01  2.251656E-08 -4.772854E-09  5.684459E-01                                                                                                                                                                                                                                                                                                                                                                                                                                                                                              
  6.250000E+02  1.250000E+02 -5.225000E+03  6.104474E-07  2.303720E-14 -4.819115E-15  6.104474E-07  3.435915E-09  1.297758E-16 -2.714758E-17  3.435915E-09  0.000000E+00  0.000000E+00  0.000000E+00  0.000000E+00  0.000000E+00  0.000000E+00  0.000000E+00  0.000000E+00  5.684461E-01  2.111104E-08 -4.416184E-09  5.684461E-01                                                                                                                                                                                                                                                                                                                                                                                                                                                                                              
  7.600000E+02  1.250000E+02 -5.225000E+03  6.104474E-07  1.165996E-14 -4.666993E-15  6.104474E-07  3.435916E-09  6.568420E-17 -2.629063E-17  3.435916E-09  0.000000E+00  0.000000E+00  0.000000E+00  0.000000E+00  0.000000E+00  0.000000E+00  0.000000E+00  0.000000E+00  5.684462E-01  1.068506E-08 -4.276781E-09  5.684462E-01                                                                                                                                                                                                                                                                                                                                                                                                                                                                                              
  7.800000E+02  1.250000E+02 -5.225000E+03  6.104474E-07  6.458594E-15 -4.640205E-15  6.104474E-07  3.435916E-09  3.638328E-17 -2.613973E-17  3.435916E-09  0.000000E+00  0.000000E+00  0.000000E+00  0.000000E+00  0.000000E+00  0.000000E+00  0.000000E+00  0.000000E+00  5.684462E-01  5.918585E-09 -4.252234E-09  5.684462E-01                                                                                                                                                                                                                                                                                                                                                                                                                                                                                              
  8.000000E+02  1.250000E+02 -5.225000E+03  6.104474E-07  1.177722E-15 -4.605834E-15  6.104474E-07  3.435916E-09  6.634477E-18 -2.594610E-17  3.435916E-09  0.000000E+00  0.000000E+00  0.000000E+00  0.000000E+00  0.000000E+00  0.000000E+00  0.000000E+00  0.000000E+00  5.684462E-01  1.079252E-09 -4.220736E-09  5.684462E-01                                                                                                                                                                                                                                                                                                                                                                                                                                                                                              
  9.350000E+02  1.250000E+02 -5.225000E+03  6.104474E-07 -1.165234E-14 -4.308470E-15  6.104474E-07  3.435916E-09 -6.564126E-17 -2.427096E-17  3.435916E-09  0.000000E+00  0.000000E+00  0.000000E+00  0.000000E+00  0.000000E+00  0.000000E+00  0.000000E+00  0.000000E+00  5.684462E-01 -1.067807E-08 -3.948235E-09  5.684462E-01                                                                                                                                                                                                                                                                                                                                                                                                                                                                                              
  1.185000E+03  1.250000E+02 -5.225000E+03  6.104473E-07 -1.710151E-14 -3.138246E-15  6.104473E-07  3.435915E-09 -9.633817E-17 -1.767872E-17  3.435915E-09  0.000000E+00  0.000000E+00  0.000000E+00  0.000000E+00  0.000000E+00  0.000000E+00  0.000000E+00  0.000000E+00  5.684460E-01 -1.567164E-08 -2.875854E-09  5.684460E-01                                                                                                                                                                                                                                                                                                                                                                                                                                                                                              
  1.435000E+03  1.250000E+02 -5.225000E+03  6.104472E-07 -6.173215E-15 -2.301775E-15  6.104472E-07  3.435914E-09 -3.477565E-17 -1.296662E-17  3.435914E-09  0.000000E+00  0.000000E+00  0.000000E+00  0.000000E+00  0.000000E+00  0.000000E+00  0.000000E+00  0.000000E+00  5.684459E-01 -5.657067E-09 -2.109321E-09  5.684459E-01                                                                                                                                                                                                                                                                                                                                                                                                                                                                                              
  1.250000E+02  1.250000E+02 -4.975000E+03  9.388436E-07  1.157117E-13 -6.644061E-14  9.388436E-07  5.234803E-09  6.458987E-16 -3.708692E-16  5.234803E-09  0.000000E+00  0.000000E+00  0.000000E+00  0.000000E+00  0.000000E+00  0.000000E+00  0.000000E+00  0.000000E+00  8.352298E-01  1.011637E-07 -5.808727E-08  8.352298E-01                                                                                                                                                                                                                                                                                                                                                                                                                                                                                              
  3.750000E+02  1.250000E+02 -4.975000E+03  9.388449E-07  3.387141E-13 -7.518396E-14  9.388449E-07  5.234810E-09  1.890690E-15 -4.196743E-16  5.234810E-09  0.000000E+00  0.000000E+00  0.000000E+00  0.000000E+00  0.000000E+00  0.000000E+00  0.000000E+00  0.000000E+00  8.352309E-01  2.961288E-07 -6.573135E-08  8.352309E-01                                                                                                                                                                                                                                                                                                                                                                                                                                                                                              
  6.250000E+02  1.250000E+02 -4.975000E+03  9.388475E-07  3.478598E-13 -7.528456E-14  9.388475E-07  5.234825E-09  1.941741E-15 -4.202358E-16  5.234825E-09  0.000000E+00  0.000000E+00  0.000000E+00  0.000000E+00  0.000000E+00  0.000000E+00  0.000000E+00  0.000000E+00  8.352331E-01  3.041246E-07 -6.581931E-08  8.352331E-01                                                                                                                                                                                                                                                                                                                                                                                                                                                                                              
  7.600000E+02  1.250000E+02 -4.975000E+03  9.388486E-07  1.974863E-13 -7.082240E-14  9.388486E-07  5.234831E-09  1.102362E-15 -3.953282E-16  5.234831E-09  0.000000E+00  0.000000E+00  0.000000E+00  0.000000E+00  0.000000E+00  0.000000E+00  0.000000E+00  0.000000E+00  8.352341E-01  1.726570E-07 -6.191815E-08  8.352341E-01                                                                                                                                                                                                                                                                                                                                                                                                                                                                                              
  7.800000E+02  1.250000E+02 -4.975000E+03  9.388487E-07  9.067037E-14 -7.005287E-14  9.388487E-07  5.234831E-09  5.061189E-16 -3.910327E-16  5.234831E-09  0.000000E+00  0.000000E+00  0.000000E+00  0.000000E+00  0.000000E+00  0.000000E+00  0.000000E+00  0.000000E+00  8.352342E-01  7.927072E-08 -6.124538E-08  8.352342E-01                                                                                                                                                                                                                                                                                                                                                                                                                                                                                              
  8.000000E+02  1.250000E+02 -4.975000E+03  9.388487E-07 -1.638024E-14 -6.917170E-14  9.388487E-07  5.234831E-09 -9.143395E-17 -3.861140E-16  5.234831E-09  0.000000E+00  0.000000E+00  0.000000E+00  0.000000E+00  0.000000E+00  0.000000E+00  0.000000E+00  0.000000E+00  8.352342E-01 -1.432081E-08 -6.047499E-08  8.352342E-01                                                                                                                                                                                                                                                                                                                                                                                                                                                                                              
  9.350000E+02  1.250000E+02 -4.975000E+03  9.388482E-07 -1.879812E-13 -6.249319E-14  9.388482E-07  5.234828E-09 -1.049304E-15 -3.488348E-16  5.234828E-09  0.000000E+00  0.000000E+00  0.000000E+00  0.000000E+00  0.000000E+00  0.000000E+00  0.000000E+00  0.000000E+00  8.352337E-01 -1.643470E-07 -5.463615E-08  8.352337E-01                                                                                                                                                                                                                                                                                                                                                                                                                                                                                              
  1.185000E+03  1.250000E+02 -4.975000E+03  9.388464E-07 -2.345807E-13 -4.313938E-14  9.388464E-07  5.234819E-09 -1.309421E-15 -2.408025E-16  5.234819E-09  0.000000E+00  0.000000E+00  0.000000E+00  0.000000E+00  0.000000E+00  0.000000E+00  0.000000E+00  0.000000E+00  8.352322E-01 -2.050877E-07 -3.771562E-08  8.352322E-01                                                                                                                                                                                                                                                                                                                                                                                                                                                                                              
  1.435000E+03  1.250000E+02 -4.975000E+03  9.388456E-07 -8.102126E-14 -3.176841E-14  9.388456E-07  5.234814E-09 -4.522579E-16 -1.773302E-16  5.234814E-09  0.000000E+00  0.000000E+00  0.000000E+00  0.000000E+00  0.000000E+00  0.000000E+00  0.000000E+00  0.000000E+00  8.352315E-01 -7.083475E-08 -2.777429E-08  8.352315E-01                                                                                                                                                                                                                                                                                                                                                                                                                                                                                              
  1.250000E+02  1.250000E+02 -4.725000E+03  3.254651E-06  1.229149E-12 -7.738876E-13  3.254651E-06  1.799137E-08  6.805054E-15 -4.284548E-15  1.799137E-08  0.000000E+00  0.000000E+00  0.000000E+00  0.000000E+00  0.000000E+00  0.000000E+00  0.000000E+00  0.000000E+00  2.733294E+00  1.022751E-06 -6.439369E-07  2.733294E+00                                                                                                                                                                                                                                                                                                                                                                                                                                                                                              
  3.750000E+02  1.250000E+02 -4.725000E+03  3.254659E-06  3.712690E-12 -8.909804E-13  3.254659E-06  1.799141E-08  2.055492E-14 -4.932820E-15  1.799141E-08  0.000000E+00  0.000000E+00  0.000000E+00  0.000000E+00  0.000000E+00  0.000000E+00  0.000000E+00  0.000000E+00  2.733301E+00  3.089257E-06 -7.413675E-07  2.733301E+00                                                                                                                                                                                                                                                                                                                                                                                                                                                                                              
  6.250000E+02  1.250000E+02 -4.725000E+03  3.254676E-06  4.523913E-12 -9.432320E-13  3.254676E-06  1.799152E-08  2.504617E-14 -5.222106E-15  1.799152E-08  0.000000E+00  0.000000E+00  0.000000E+00  0.000000E+00  0.000000E+00  0.000000E+00  0.000000E+00  0.000000E+00  2.733315E+00  3.764260E-06 -7.848450E-07  2.733315E+00                                                                                                                                                                                                                                                                                                                                                                                                                                                                                              
  7.600000E+02  1.250000E+02 -4.725000E+03  3.254693E-06  3.095161E-12 -8.710937E-13  3.254693E-06  1.799163E-08  1.713604E-14 -4.822720E-15  1.799163E-08  0.000000E+00  0.000000E+00  0.000000E+00  0.000000E+00  0.000000E+00  0.000000E+00  0.000000E+00  0.000000E+00  2.733329E+00  2.575424E-06 -7.248201E-07  2.733329E+00                                                                                                                                                                                                                                                                                                                                                                                                                                                                                              
  7.800000E+02  1.250000E+02 -4.725000E+03  3.254694E-06  1.068269E-12 -8.586451E-13  3.254694E-06  1.799164E-08  5.914362E-15 -4.753800E-15  1.799164E-08  0.000000E+00  0.000000E+00  0.000000E+00  0.000000E+00  0.000000E+00  0.000000E+00  0.000000E+00  0.000000E+00  2.733330E+00  8.888862E-07 -7.144620E-07  2.733330E+00                                                                                                                                                                                                                                                                                                                                                                                                                                                                                              
  8.000000E+02  1.250000E+02 -4.725000E+03  3.254693E-06 -9.665344E-13 -8.444777E-13  3.254693E-06  1.799163E-08 -5.351117E-15 -4.675363E-15  1.799163E-08  0.000000E+00  0.000000E+00  0.000000E+00  0.000000E+00  0.000000E+00  0.000000E+00  0.000000E+00  0.000000E+00  2.733330E+00 -8.042345E-07 -7.026735E-07  2.733330E+00                                                                                                                                                                                                                                                                                                                                                                                                                                                                                              
  9.350000E+02  1.250000E+02 -4.725000E+03  3.254681E-06 -2.656645E-12 -7.386069E-13  3.254681E-06  1.799154E-08 -1.470824E-14 -4.089220E-15  1.799154E-08  0.000000E+00  0.000000E+00  0.000000E+00  0.000000E+00  0.000000E+00  0.000000E+00  0.000000E+00  0.000000E+00  2.733320E+00 -2.210543E-06 -6.145804E-07  2.733320E+00                                                                                                                                                                                                                                                                                                                                                                                                                                                                                              
  1.185000E+03  1.250000E+02 -4.725000E+03  3.254670E-06 -2.500576E-12 -5.017649E-13  3.254670E-06  1.799148E-08 -1.384418E-14 -2.777969E-15  1.799148E-08  0.000000E+00  0.000000E+00  0.000000E+00  0.000000E+00  0.000000E+00  0.000000E+00  0.000000E+00  0.000000E+00  2.733311E+00 -2.080680E-06 -4.175088E-07  2.733311E+00                                                                                                                                                                                                                                                                                                                                                                                                                                                                                              