Title="TOUGHREACT V3.30-OMP flowvector.tec: Liq & Gas Fluxes (kg/s/m^2), Pore Velocities (m/s), & Heat Fluxes (J/s/m2)"                                                                                                                                                                                                                                                                                                                                                                                                                                                                                                                                                                                                                                                                                                         
Variables= "X(m)"     "Y(m)"      "Z(m)"     "FluxLiq"   "FluxLiq_X"   "FluxLiq_Y"   "FluxLiq_Z"   "PorVelLiq"  "PorVelLiqX"  "PorVelLiqY"  "PorVelLiqZ"     "FluxGas"   "FluxGas_X"   "FluxGas_Y"   "FluxGas_Z"   "PorVelGas"  "PorVelGasX"  "PorVelGasY"  "PorVelGasZ"    "HeatFlux"  "HeatFlux_X"  "HeatFlux_Y"  "HeatFlux_Z"                                                                                                                                                                                                                                                                                                                                                                                                                                                                                                
Zone T= "1.00000000E+10 sec" I=     9 J=    10 K=    23 F=Point
  1.250000E+02  1.250000E+02 -5.425000E+03  1.546190E-09 -1.868983E-12  3.771510E-10  1.499485E-09  8.785998E-12 -1.067143E-14  2.153439E-12  8.518002E-12  0.000000E+00  0.000000E+00  0.000000E+00  0.000000E+00  0.000000E+00  0.000000E+00  0.000000E+00  0.000000E+00  1.481800E-03 -1.791153E-06  3.614449E-04  1.437041E-03                                                                                                                                                                                                                                                                                                                                                                                                                                                                                              
  3.750000E+02  1.250000E+02 -5.425000E+03  1.572502E-09 -6.067429E-11  3.950166E-10  1.520870E-09  8.935753E-12 -3.464353E-13  2.255448E-12  8.639481E-12  0.000000E+00  0.000000E+00  0.000000E+00  0.000000E+00  0.000000E+00  0.000000E+00  0.000000E+00  0.000000E+00  1.507018E-03 -5.814766E-05  3.785669E-04  1.457536E-03                                                                                                                                                                                                                                                                                                                                                                                                                                                                                              
  6.250000E+02  1.250000E+02 -5.425000E+03  1.603233E-09 -2.107359E-10  3.995113E-10  1.538291E-09  9.111075E-12 -1.203250E-12  2.281111E-12  8.738445E-12  0.000000E+00  0.000000E+00  0.000000E+00  0.000000E+00  0.000000E+00  0.000000E+00  0.000000E+00  0.000000E+00  1.536471E-03 -2.019604E-04  3.828746E-04  1.474233E-03                                                                                                                                                                                                                                                                                                                                                                                                                                                                                              
  7.600000E+02  1.250000E+02 -5.425000E+03  1.611109E-09 -3.092047E-10  3.753404E-10  1.535964E-09  9.156385E-12 -1.765483E-12  2.143101E-12  8.725226E-12  0.000000E+00  0.000000E+00  0.000000E+00  0.000000E+00  0.000000E+00  0.000000E+00  0.000000E+00  0.000000E+00  1.544019E-03 -2.963288E-04  3.597104E-04  1.472003E-03                                                                                                                                                                                                                                                                                                                                                                                                                                                                                              
  7.800000E+02  1.250000E+02 -5.425000E+03  1.611807E-09 -3.195520E-10  3.715542E-10  1.535499E-09  9.160413E-12 -1.824563E-12  2.121483E-12  8.722583E-12  0.000000E+00  0.000000E+00  0.000000E+00  0.000000E+00  0.000000E+00  0.000000E+00  0.000000E+00  0.000000E+00  1.544688E-03 -3.062452E-04  3.560819E-04  1.471557E-03                                                                                                                                                                                                                                                                                                                                                                                                                                                                                              
  8.000000E+02  1.250000E+02 -5.425000E+03  1.612281E-09 -3.291741E-10  3.675817E-10  1.534919E-09  9.163162E-12 -1.879502E-12  2.098800E-12  8.719292E-12  0.000000E+00  0.000000E+00  0.000000E+00  0.000000E+00  0.000000E+00  0.000000E+00  0.000000E+00  0.000000E+00  1.545142E-03 -3.154666E-04  3.522748E-04  1.471002E-03                                                                                                                                                                                                                                                                                                                                                                                                                                                                                              
  9.350000E+02  1.250000E+02 -5.425000E+03  1.607765E-09 -3.576284E-10  3.396317E-10  1.530249E-09  9.137516E-12 -2.041969E-12  1.939212E-12  8.692757E-12  0.000000E+00  0.000000E+00  0.000000E+00  0.000000E+00  0.000000E+00  0.000000E+00  0.000000E+00  0.000000E+00  1.540815E-03 -3.427360E-04  3.254887E-04  1.466526E-03                                                                                                                                                                                                                                                                                                                                                                                                                                                                                              
  1.185000E+03  1.250000E+02 -5.425000E+03  1.569136E-09 -3.176873E-10  2.826073E-10  1.510429E-09  8.917020E-12 -1.813914E-12  1.613616E-12  8.580163E-12  0.000000E+00  0.000000E+00  0.000000E+00  0.000000E+00  0.000000E+00  0.000000E+00  0.000000E+00  0.000000E+00  1.503794E-03 -3.044580E-04  2.708389E-04  1.447531E-03                                                                                                                                                                                                                                                                                                                                                                                                                                                                                              
  1.435000E+03  1.250000E+02 -5.425000E+03  1.517547E-09 -1.269551E-10  2.499558E-10  1.491426E-09  8.622103E-12 -7.248812E-13  1.427184E-12  8.472211E-12  0.000000E+00  0.000000E+00  0.000000E+00  0.000000E+00  0.000000E+00  0.000000E+00  0.000000E+00  0.000000E+00  1.454352E-03 -1.216683E-04  2.395470E-04  1.429319E-03                                                                                                                                                                                                                                                                                                                                                                                                                                                                                              
  1.250000E+02  1.250000E+02 -5.225000E+03  4.234175E-10  1.402345E-11  3.787247E-10  1.888207E-10  2.432656E-12  7.920667E-14  2.139097E-12  1.155770E-12  0.000000E+00  0.000000E+00  0.000000E+00  0.000000E+00  0.000000E+00  0.000000E+00  0.000000E+00  0.000000E+00  4.533037E-04  1.284344E-05  3.468570E-04  2.915639E-04                                                                                                                                                                                                                                                                                                                                                                                                                                                                                              
  3.750000E+02  1.250000E+02 -5.225000E+03  4.901630E-10 -3.014409E-11  4.019558E-10  2.788954E-10  2.819425E-12 -1.702587E-13  2.270311E-12  1.663087E-12  0.000000E+00  0.000000E+00  0.000000E+00  0.000000E+00  0.000000E+00  0.000000E+00  0.000000E+00  0.000000E+00  5.241497E-04 -2.760774E-05  3.681339E-04  3.720863E-04                                                                                                                                                                                                                                                                                                                                                                                                                                                                                              
  6.250000E+02  1.250000E+02 -5.225000E+03  5.746358E-10 -1.953039E-10  4.118410E-10  3.499282E-10  3.299177E-12 -1.103108E-12  2.326145E-12  2.063194E-12  0.000000E+00  0.000000E+00  0.000000E+00  0.000000E+00  0.000000E+00  0.000000E+00  0.000000E+00  0.000000E+00  6.033604E-04 -1.788707E-04  3.771878E-04  4.356357E-04                                                                                                                                                                                                                                                                                                                                                                                                                                                                                              
  7.600000E+02  1.250000E+02 -5.225000E+03  6.002911E-10 -3.085878E-10  3.819356E-10  3.453233E-10  3.441169E-12 -1.742954E-12  2.157234E-12  2.037179E-12  0.000000E+00  0.000000E+00  0.000000E+00  0.000000E+00  0.000000E+00  0.000000E+00  0.000000E+00  0.000000E+00  6.231795E-04 -2.826227E-04  3.497989E-04  4.314138E-04                                                                                                                                                                                                                                                                                                                                                                                                                                                                                              
  7.800000E+02  1.250000E+02 -5.225000E+03  6.030845E-10 -3.208464E-10  3.772599E-10  3.441562E-10  3.456554E-12 -1.812193E-12  2.130825E-12  2.030594E-12  0.000000E+00  0.000000E+00  0.000000E+00  0.000000E+00  0.000000E+00  0.000000E+00  0.000000E+00  0.000000E+00  6.252474E-04 -2.938499E-04  3.455166E-04  4.303543E-04                                                                                                                                                                                                                                                                                                                                                                                                                                                                                              
  8.000000E+02  1.250000E+02 -5.225000E+03  6.052959E-10 -3.323220E-10  3.723656E-10  3.424749E-10  3.468634E-12 -1.877008E-12  2.103181E-12  2.021113E-12  0.000000E+00  0.000000E+00  0.000000E+00  0.000000E+00  0.000000E+00  0.000000E+00  0.000000E+00  0.000000E+00  6.267691E-04 -3.043599E-04  3.410341E-04  4.288360E-04                                                                                                                                                                                                                                                                                                                                                                                                                                                                                              
  9.350000E+02  1.250000E+02 -5.225000E+03  5.983073E-10 -3.691391E-10  3.380359E-10  3.277799E-10  3.427724E-12 -2.084956E-12  1.909281E-12  1.938271E-12  0.000000E+00  0.000000E+00  0.000000E+00  0.000000E+00  0.000000E+00  0.000000E+00  0.000000E+00  0.000000E+00  6.187627E-04 -3.380792E-04  3.095931E-04  4.155981E-04                                                                                                                                                                                                                                                                                                                                                                                                                                                                                              
  1.185000E+03  1.250000E+02 -5.225000E+03  5.041548E-10 -3.374794E-10  2.732034E-10  2.562023E-10  2.893194E-12 -1.906136E-12  1.543095E-12  1.534950E-12  0.000000E+00  0.000000E+00  0.000000E+00  0.000000E+00  0.000000E+00  0.000000E+00  0.000000E+00  0.000000E+00  5.306605E-04 -3.090831E-04  2.502156E-04  3.513692E-04                                                                                                                                                                                                                                                                                                                                                                                                                                                                                              
  1.435000E+03  1.250000E+02 -5.225000E+03  3.276064E-10 -1.372673E-10  2.391008E-10  1.769589E-10  1.899999E-12 -7.753064E-13  1.350477E-12  1.088625E-12  0.000000E+00  0.000000E+00  0.000000E+00  0.000000E+00  0.000000E+00  0.000000E+00  0.000000E+00  0.000000E+00  3.774208E-04 -1.257172E-04  2.189821E-04  2.805146E-04                                                                                                                                                                                                                                                                                                                                                                                                                                                                                              
  1.250000E+02  1.250000E+02 -4.975000E+03  5.413833E-09  8.037734E-11  3.788275E-10 -5.399964E-09  3.017611E-11  4.493938E-13  2.118042E-12 -3.009833E-11  0.000000E+00  0.000000E+00  0.000000E+00  0.000000E+00  0.000000E+00  0.000000E+00  0.000000E+00  0.000000E+00  4.550359E-03  7.024711E-05  3.310826E-04 -4.537754E-03                                                                                                                                                                                                                                                                                                                                                                                                                                                                                              
  3.750000E+02  1.250000E+02 -4.975000E+03  5.161647E-09  9.030123E-11  4.083878E-10 -5.144673E-09  2.877039E-11  5.048788E-13  2.283318E-12 -2.867519E-11  0.000000E+00  0.000000E+00  0.000000E+00  0.000000E+00  0.000000E+00  0.000000E+00  0.000000E+00  0.000000E+00  4.338592E-03  7.892030E-05  3.569191E-04 -4.323165E-03                                                                                                                                                                                                                                                                                                                                                                                                                                                                                              
  6.250000E+02  1.250000E+02 -4.975000E+03  4.990470E-09 -1.416839E-10  4.282589E-10 -4.970042E-09  2.781594E-11 -7.921629E-13  2.394419E-12 -2.770136E-11  0.000000E+00  0.000000E+00  0.000000E+00  0.000000E+00  0.000000E+00  0.000000E+00  0.000000E+00  0.000000E+00  4.194732E-03 -1.238281E-04  3.742867E-04 -4.176165E-03                                                                                                                                                                                                                                                                                                                                                                                                                                                                                              
  7.600000E+02  1.250000E+02 -4.975000E+03  4.976749E-09 -3.138880E-10  3.760859E-10 -4.952581E-09  2.774000E-11 -1.754966E-12  2.102717E-12 -2.760446E-11  0.000000E+00  0.000000E+00  0.000000E+00  0.000000E+00  0.000000E+00  0.000000E+00  0.000000E+00  0.000000E+00  4.183814E-03 -2.743300E-04  3.286894E-04 -4.161852E-03                                                                                                                                                                                                                                                                                                                                                                                                                                                                                              
  7.800000E+02  1.250000E+02 -4.975000E+03  4.972686E-09 -3.351237E-10  3.681602E-10 -4.947702E-09  2.771752E-11 -1.873696E-12  2.058404E-12 -2.757740E-11  0.000000E+00  0.000000E+00  0.000000E+00  0.000000E+00  0.000000E+00  0.000000E+00  0.000000E+00  0.000000E+00  4.180588E-03 -2.928896E-04  3.217626E-04 -4.157884E-03                                                                                                                                                                                                                                                                                                                                                                                                                                                                                              
  8.000000E+02  1.250000E+02 -4.975000E+03  4.974695E-09 -3.557130E-10  3.601190E-10 -4.948875E-09  2.772879E-11 -1.988812E-12  2.013445E-12 -2.758399E-11  0.000000E+00  0.000000E+00  0.000000E+00  0.000000E+00  0.000000E+00  0.000000E+00  0.000000E+00  0.000000E+00  4.182367E-03 -3.108842E-04  3.147348E-04 -4.158905E-03                                                                                                                                                                                                                                                                                                                                                                                                                                                                                              
  9.350000E+02  1.250000E+02 -4.975000E+03  5.006895E-09 -4.282275E-10  3.055545E-10 -4.979183E-09  2.790836E-11 -2.394244E-12  1.708371E-12 -2.775294E-11  0.000000E+00  0.000000E+00  0.000000E+00  0.000000E+00  0.000000E+00  0.000000E+00  0.000000E+00  0.000000E+00  4.209495E-03 -3.742601E-04  2.670471E-04 -4.184312E-03                                                                                                                                                                                                                                                                                                                                                                                                                                                                                              
  1.185000E+03  1.250000E+02 -4.975000E+03  5.146055E-09 -4.364297E-10  2.270135E-10 -5.122487E-09  2.868463E-11 -2.440100E-12  1.269244E-12 -2.855246E-11  0.000000E+00  0.000000E+00  0.000000E+00  0.000000E+00  0.000000E+00  0.000000E+00  0.000000E+00  0.000000E+00  4.326638E-03 -3.814275E-04  1.984040E-04 -4.305223E-03                                                                                                                                                                                                                                                                                                                                                                                                                                                                                              
  1.435000E+03  1.250000E+02 -4.975000E+03  5.359495E-09 -1.910715E-10  2.004006E-10 -5.352337E-09  2.987370E-11 -1.068290E-12  1.120448E-12 -2.983356E-11  0.000000E+00  0.000000E+00  0.000000E+00  0.000000E+00  0.000000E+00  0.000000E+00  0.000000E+00  0.000000E+00  4.504701E-03 -1.669907E-04  1.751440E-04 -4.498196E-03                                                                                                                                                                                                                                                                                                                                                                                                                                                                                              
  1.250000E+02  1.250000E+02 -4.725000E+03  1.115679E-08  2.435006E-10  2.357254E-10 -1.115164E-08  5.971809E-11  1.347333E-12  1.304315E-12 -5.968864E-11  0.000000E+00  0.000000E+00  0.000000E+00  0.000000E+00  0.000000E+00  0.000000E+00  0.000000E+00  0.000000E+00  4.276994E-03  2.019958E-04  1.955460E-04 -4.267744E-03                                                                                                                                                                                                                                                                                                                                                                                                                                                                                              
  3.750000E+02  1.250000E+02 -4.725000E+03  1.039585E-08  3.518840E-10  2.281818E-10 -1.038738E-08  5.565447E-11  1.947048E-12  1.262570E-12 -5.560607E-11  0.000000E+00  0.000000E+00  0.000000E+00  0.000000E+00  0.000000E+00  0.000000E+00  0.000000E+00  0.000000E+00  3.874088E-03  2.919118E-04  1.893018E-04 -3.858433E-03                                                                                                                                                                                                                                                                                                                                                                                                                                                                                              
  6.250000E+02  1.250000E+02 -4.725000E+03  1.003674E-08 -1.301923E-11  2.121413E-10 -1.003449E-08  5.372810E-11 -7.204589E-14  1.173821E-12 -5.371523E-11  0.000000E+00  0.000000E+00  0.000000E+00  0.000000E+00  0.000000E+00  0.000000E+00  0.000000E+00  0.000000E+00  3.679554E-03 -1.081123E-05  1.760086E-04 -3.675326E-03                                                                                                                                                                                                                                                                                                                                                                                                                                                                                              
  7.600000E+02  1.250000E+02 -4.725000E+03  9.888287E-09 -2.629994E-10  1.259407E-10 -9.883986E-09  5.294421E-11 -1.455265E-12  6.968522E-13 -5.291962E-11  0.000000E+00  0.000000E+00  0.000000E+00  0.000000E+00  0.000000E+00  0.000000E+00  0.000000E+00  0.000000E+00  3.628833E-03 -2.182111E-04  1.044923E-04 -3.620758E-03                                                                                                                                                                                                                                                                                                                                                                                                                                                                                              
  7.800000E+02  1.250000E+02 -4.725000E+03  9.819721E-09 -3.069819E-10  1.145061E-10 -9.814254E-09  5.258357E-11 -1.698640E-12  6.335836E-13 -5.255231E-11  0.000000E+00  0.000000E+00  0.000000E+00  0.000000E+00  0.000000E+00  0.000000E+00  0.000000E+00  0.000000E+00  3.608889E-03 -2.547053E-04  9.500661E-05 -3.598635E-03                                                                                                                                                                                                                                                                                                                                                                                                                                                                                              
  8.000000E+02  1.250000E+02 -4.725000E+03  9.872197E-09 -3.498827E-10  1.047916E-10 -9.865438E-09  5.285945E-11 -1.936021E-12  5.798309E-13 -5.282080E-11  0.000000E+00  0.000000E+00  0.000000E+00  0.000000E+00  0.000000E+00  0.000000E+00  0.000000E+00  0.000000E+00  3.626559E-03 -2.902913E-04  8.694638E-05 -3.613876E-03                                                                                                                                                                                                                                                                                                                                                                                                                                                                                              
  9.350000E+02  1.250000E+02 -4.725000E+03  9.986475E-09 -4.888189E-10  4.954783E-11 -9.974381E-09  5.346821E-11 -2.704768E-12  2.741567E-13 -5.339905E-11  0.000000E+00  0.000000E+00  0.000000E+00  0.000000E+00  0.000000E+00  0.000000E+00  0.000000E+00  0.000000E+00  3.687065E-03 -4.055312E-04  4.110779E-05 -3.664465E-03                                                                                                                                                                                                                                                                                                                                                                                                                                                                                              
  1.185000E+03  1.250000E+02 -4.725000E+03  1.025813E-08 -6.262265E-10  2.620905E-11 -1.023896E-08  5.492768E-11 -3.465024E-12  1.450182E-13 -5.481809E-11  0.000000E+00  0.000000E+00  0.000000E+00  0.000000E+00  0.000000E+00  0.000000E+00  0.000000E+00  0.000000E+00  3.850875E-03 -5.194798E-04  2.174270E-05 -3.815613E-03                                                                                                                                                                                                                                                                                                                                                                                                                                                                                              