Title="TOUGHREACT V3.30-OMP flowvector.tec: Liq & Gas Fluxes (kg/s/m^2), Pore Velocities (m/s), & Heat Fluxes (J/s/m2)"                                                                                                                                                                                                                                                                                                                                                                                                                                                                                                                                                                                                                                                                                                         
Variables= "X(m)"     "Y(m)"      "Z(m)"     "FluxLiq"   "FluxLiq_X"   "FluxLiq_Y"   "FluxLiq_Z"   "PorVelLiq"  "PorVelLiqX"  "PorVelLiqY"  "PorVelLiqZ"     "FluxGas"   "FluxGas_X"   "FluxGas_Y"   "FluxGas_Z"   "PorVelGas"  "PorVelGasX"  "PorVelGasY"  "PorVelGasZ"    "HeatFlux"  "HeatFlux_X"  "HeatFlux_Y"  "HeatFlux_Z"                                                                                                                                                                                                                                                                                                                                                                                                                                                                                                
Zone T= "3.15569000E+08 sec" I=     9 J=    10 K=    23 F=Point
  1.250000E+02  1.250000E+02 -5.425000E+03  1.902068E-07 -1.820907E-10  6.758756E-11  1.902067E-07  1.080731E-09 -1.038634E-12  3.855154E-13  1.080730E-09  0.000000E+00  0.000000E+00  0.000000E+00  0.000000E+00  0.000000E+00  0.000000E+00  0.000000E+00  0.000000E+00  1.806046E-01 -1.728983E-04  6.417554E-05  1.806045E-01                                                                                                                                                                                                                                                                                                                                                                                                                                                                                              
  3.750000E+02  1.250000E+02 -5.425000E+03  1.900175E-07 -4.401205E-10  7.735413E-11  1.900170E-07  1.079655E-09 -2.510419E-12  4.412231E-13  1.079652E-09  0.000000E+00  0.000000E+00  0.000000E+00  0.000000E+00  0.000000E+00  0.000000E+00  0.000000E+00  0.000000E+00  1.804249E-01 -4.179020E-04  7.344907E-05  1.804244E-01                                                                                                                                                                                                                                                                                                                                                                                                                                                                                              
  6.250000E+02  1.250000E+02 -5.425000E+03  1.896982E-07 -3.164696E-10  8.008791E-11  1.896979E-07  1.077840E-09 -1.805122E-12  4.568161E-13  1.077839E-09  0.000000E+00  0.000000E+00  0.000000E+00  0.000000E+00  0.000000E+00  0.000000E+00  0.000000E+00  0.000000E+00  1.801217E-01 -3.004934E-04  7.604485E-05  1.801215E-01                                                                                                                                                                                                                                                                                                                                                                                                                                                                                              
  7.600000E+02  1.250000E+02 -5.425000E+03  1.896661E-07 -9.778903E-11  7.146573E-11  1.896660E-07  1.077657E-09 -5.577820E-13  4.076357E-13  1.077657E-09  0.000000E+00  0.000000E+00  0.000000E+00  0.000000E+00  0.000000E+00  0.000000E+00  0.000000E+00  0.000000E+00  1.800912E-01 -9.285237E-05  6.785794E-05  1.800912E-01                                                                                                                                                                                                                                                                                                                                                                                                                                                                                              
  7.800000E+02  1.250000E+02 -5.425000E+03  1.896639E-07 -5.935673E-11  7.012313E-11  1.896638E-07  1.077645E-09 -3.385668E-13  3.999776E-13  1.077645E-09  0.000000E+00  0.000000E+00  0.000000E+00  0.000000E+00  0.000000E+00  0.000000E+00  0.000000E+00  0.000000E+00  1.800891E-01 -5.636024E-05  6.658313E-05  1.800891E-01                                                                                                                                                                                                                                                                                                                                                                                                                                                                                              
  8.000000E+02  1.250000E+02 -5.425000E+03  1.896642E-07 -2.064126E-11  6.872429E-11  1.896642E-07  1.077647E-09 -1.177364E-13  3.919987E-13  1.077647E-09  0.000000E+00  0.000000E+00  0.000000E+00  0.000000E+00  0.000000E+00  0.000000E+00  0.000000E+00  0.000000E+00  1.800895E-01 -1.959923E-05  6.525490E-05  1.800895E-01                                                                                                                                                                                                                                                                                                                                                                                                                                                                                              
  9.350000E+02  1.250000E+02 -5.425000E+03  1.896842E-07  2.254904E-10  5.896858E-11  1.896841E-07  1.077760E-09  1.286182E-12  3.363528E-13  1.077760E-09  0.000000E+00  0.000000E+00  0.000000E+00  0.000000E+00  0.000000E+00  0.000000E+00  0.000000E+00  0.000000E+00  1.801084E-01  2.141070E-04  5.599168E-05  1.801083E-01                                                                                                                                                                                                                                                                                                                                                                                                                                                                                              
  1.185000E+03  1.250000E+02 -5.425000E+03  1.900031E-07  4.001860E-10  4.465839E-11  1.900027E-07  1.079573E-09  2.282635E-12  2.547286E-13  1.079571E-09  0.000000E+00  0.000000E+00  0.000000E+00  0.000000E+00  0.000000E+00  0.000000E+00  0.000000E+00  0.000000E+00  1.804113E-01  3.799835E-04  4.240391E-05  1.804108E-01                                                                                                                                                                                                                                                                                                                                                                                                                                                                                              
  1.435000E+03  1.250000E+02 -5.425000E+03  1.901995E-07  1.740620E-10  3.526856E-11  1.901994E-07  1.080689E-09  9.928386E-13  2.011697E-13  1.080689E-09  0.000000E+00  0.000000E+00  0.000000E+00  0.000000E+00  0.000000E+00  0.000000E+00  0.000000E+00  0.000000E+00  1.805976E-01  1.652749E-04  3.348810E-05  1.805976E-01                                                                                                                                                                                                                                                                                                                                                                                                                                                                                              
  1.250000E+02  1.250000E+02 -5.225000E+03  6.739002E-07 -3.255510E-10  7.237875E-11  6.739001E-07  3.805066E-09 -1.842021E-12  4.095310E-13  3.805066E-09  0.000000E+00  0.000000E+00  0.000000E+00  0.000000E+00  0.000000E+00  0.000000E+00  0.000000E+00  0.000000E+00  6.234562E-01 -2.980625E-04  6.626729E-05  6.234561E-01                                                                                                                                                                                                                                                                                                                                                                                                                                                                                              
  3.750000E+02  1.250000E+02 -5.225000E+03  6.730000E-07 -8.260217E-10  8.248524E-11  6.729995E-07  3.799984E-09 -4.673761E-12  4.667148E-13  3.799981E-09  0.000000E+00  0.000000E+00  0.000000E+00  0.000000E+00  0.000000E+00  0.000000E+00  0.000000E+00  0.000000E+00  6.226257E-01 -7.562750E-04  7.552043E-05  6.226253E-01                                                                                                                                                                                                                                                                                                                                                                                                                                                                                              
  6.250000E+02  1.250000E+02 -5.225000E+03  6.713157E-07 -6.035507E-10  7.786509E-11  6.713154E-07  3.790476E-09 -3.414983E-12  4.405727E-13  3.790474E-09  0.000000E+00  0.000000E+00  0.000000E+00  0.000000E+00  0.000000E+00  0.000000E+00  0.000000E+00  0.000000E+00  6.210729E-01 -5.525888E-04  7.129042E-05  6.210727E-01                                                                                                                                                                                                                                                                                                                                                                                                                                                                                              
  7.600000E+02  1.250000E+02 -5.225000E+03  6.710815E-07 -1.628744E-10  6.370767E-11  6.710815E-07  3.789154E-09 -9.215681E-13  3.604677E-13  3.789154E-09  0.000000E+00  0.000000E+00  0.000000E+00  0.000000E+00  0.000000E+00  0.000000E+00  0.000000E+00  0.000000E+00  6.208575E-01 -1.491218E-04  5.832840E-05  6.208575E-01                                                                                                                                                                                                                                                                                                                                                                                                                                                                                              
  7.800000E+02  1.250000E+02 -5.225000E+03  6.710670E-07 -7.556925E-11  6.154646E-11  6.710670E-07  3.789073E-09 -4.275824E-13  3.482393E-13  3.789073E-09  0.000000E+00  0.000000E+00  0.000000E+00  0.000000E+00  0.000000E+00  0.000000E+00  0.000000E+00  0.000000E+00  6.208442E-01 -6.918843E-05  5.634967E-05  6.208442E-01                                                                                                                                                                                                                                                                                                                                                                                                                                                                                              
  8.000000E+02  1.250000E+02 -5.225000E+03  6.710734E-07  1.219240E-11  5.933847E-11  6.710734E-07  3.789109E-09  6.898647E-14  3.357462E-13  3.789109E-09  0.000000E+00  0.000000E+00  0.000000E+00  0.000000E+00  0.000000E+00  0.000000E+00  0.000000E+00  0.000000E+00  6.208500E-01  1.116291E-05  5.432812E-05  6.208500E-01                                                                                                                                                                                                                                                                                                                                                                                                                                                                                              
  9.350000E+02  1.250000E+02 -5.225000E+03  6.712535E-07  4.969842E-10  4.426907E-11  6.712533E-07  3.790124E-09  2.812013E-12  2.504812E-13  3.790123E-09  0.000000E+00  0.000000E+00  0.000000E+00  0.000000E+00  0.000000E+00  0.000000E+00  0.000000E+00  0.000000E+00  6.210156E-01  4.550205E-04  4.053113E-05  6.210154E-01                                                                                                                                                                                                                                                                                                                                                                                                                                                                                              
  1.185000E+03  1.250000E+02 -5.225000E+03  6.729431E-07  7.921638E-10  4.017729E-11  6.729426E-07  3.799661E-09  4.482187E-12  2.273296E-13  3.799659E-09  0.000000E+00  0.000000E+00  0.000000E+00  0.000000E+00  0.000000E+00  0.000000E+00  0.000000E+00  0.000000E+00  6.225732E-01  7.252759E-04  3.678484E-05  6.225727E-01                                                                                                                                                                                                                                                                                                                                                                                                                                                                                              
  1.435000E+03  1.250000E+02 -5.225000E+03  6.738775E-07  3.231469E-10  3.581946E-11  6.738774E-07  3.804937E-09  1.828417E-12  2.026724E-13  3.804937E-09  0.000000E+00  0.000000E+00  0.000000E+00  0.000000E+00  0.000000E+00  0.000000E+00  0.000000E+00  0.000000E+00  6.234353E-01  2.958613E-04  3.279496E-05  6.234352E-01                                                                                                                                                                                                                                                                                                                                                                                                                                                                                              
  1.250000E+02  1.250000E+02 -4.975000E+03  1.191761E-06 -1.001365E-09  8.215634E-11  1.191761E-06  6.678710E-09 -5.616748E-12  4.608237E-13  6.678707E-09  0.000000E+00  0.000000E+00  0.000000E+00  0.000000E+00  0.000000E+00  0.000000E+00  0.000000E+00  0.000000E+00  1.061286E+00 -8.746033E-04  7.175623E-05  1.061285E+00                                                                                                                                                                                                                                                                                                                                                                                                                                                                                              
  3.750000E+02  1.250000E+02 -4.975000E+03  1.188997E-06 -2.803447E-09  7.630832E-11  1.188994E-06  6.663226E-09 -1.572474E-11  4.280203E-13  6.663208E-09  0.000000E+00  0.000000E+00  0.000000E+00  0.000000E+00  0.000000E+00  0.000000E+00  0.000000E+00  0.000000E+00  1.058842E+00 -2.448564E-03  6.664855E-05  1.058839E+00                                                                                                                                                                                                                                                                                                                                                                                                                                                                                              
  6.250000E+02  1.250000E+02 -4.975000E+03  1.182555E-06 -2.262926E-09  9.281701E-13  1.182553E-06  6.627151E-09 -1.269290E-11  5.206165E-15  6.627139E-09  0.000000E+00  0.000000E+00  0.000000E+00  0.000000E+00  0.000000E+00  0.000000E+00  0.000000E+00  0.000000E+00  1.053158E+00 -1.976468E-03  8.106752E-07  1.053157E+00                                                                                                                                                                                                                                                                                                                                                                                                                                                                                              
  7.600000E+02  1.250000E+02 -4.975000E+03  1.180201E-06 -6.667131E-10 -3.908510E-11  1.180201E-06  6.613990E-09 -3.739634E-12 -2.192306E-13  6.613989E-09  0.000000E+00  0.000000E+00  0.000000E+00  0.000000E+00  0.000000E+00  0.000000E+00  0.000000E+00  0.000000E+00  1.051094E+00 -5.823155E-04 -3.413742E-05  1.051094E+00                                                                                                                                                                                                                                                                                                                                                                                                                                                                                              
  7.800000E+02  1.250000E+02 -4.975000E+03  1.180077E-06 -1.490619E-10 -4.567745E-11  1.180077E-06  6.613297E-09 -8.360972E-13 -2.562075E-13  6.613297E-09  0.000000E+00  0.000000E+00  0.000000E+00  0.000000E+00  0.000000E+00  0.000000E+00  0.000000E+00  0.000000E+00  1.050985E+00 -1.301925E-04 -3.989526E-05  1.050985E+00                                                                                                                                                                                                                                                                                                                                                                                                                                                                                              
  8.000000E+02  1.250000E+02 -4.975000E+03  1.180176E-06  3.700139E-10 -5.278008E-11  1.180176E-06  6.613854E-09  2.075430E-12 -2.960465E-13  6.613854E-09  0.000000E+00  0.000000E+00  0.000000E+00  0.000000E+00  0.000000E+00  0.000000E+00  0.000000E+00  0.000000E+00  1.051073E+00  3.231748E-04 -4.609878E-05  1.051073E+00                                                                                                                                                                                                                                                                                                                                                                                                                                                                                              
  9.350000E+02  1.250000E+02 -4.975000E+03  1.182382E-06  2.090209E-09 -1.025789E-10  1.182380E-06  6.626182E-09  1.172411E-11 -5.753713E-13  6.626171E-09  0.000000E+00  0.000000E+00  0.000000E+00  0.000000E+00  0.000000E+00  0.000000E+00  0.000000E+00  0.000000E+00  1.053005E+00  1.825614E-03 -8.959370E-05  1.053004E+00                                                                                                                                                                                                                                                                                                                                                                                                                                                                                              
  1.185000E+03  1.250000E+02 -4.975000E+03  1.188867E-06  2.802348E-09 -7.177634E-12  1.188863E-06  6.662491E-09  1.571858E-11 -4.025999E-14  6.662473E-09  0.000000E+00  0.000000E+00  0.000000E+00  0.000000E+00  0.000000E+00  0.000000E+00  0.000000E+00  0.000000E+00  1.058726E+00  2.447604E-03 -6.269026E-06  1.058723E+00                                                                                                                                                                                                                                                                                                                                                                                                                                                                                              
  1.435000E+03  1.250000E+02 -4.975000E+03  1.191740E-06  1.025346E-09  3.290042E-11  1.191740E-06  6.678592E-09  5.751260E-12  1.845419E-13  6.678589E-09  0.000000E+00  0.000000E+00  0.000000E+00  0.000000E+00  0.000000E+00  0.000000E+00  0.000000E+00  0.000000E+00  1.061267E+00  8.955489E-04  2.873558E-05  1.061267E+00                                                                                                                                                                                                                                                                                                                                                                                                                                                                                              
  1.250000E+02  1.250000E+02 -4.725000E+03  1.509414E-06 -2.944657E-09  6.825072E-11  1.509411E-06  8.399890E-09 -1.639210E-11  3.799360E-13  8.399874E-09  0.000000E+00  0.000000E+00  0.000000E+00  0.000000E+00  0.000000E+00  0.000000E+00  0.000000E+00  0.000000E+00  1.284508E+00 -2.447587E-03  5.672960E-05  1.284506E+00                                                                                                                                                                                                                                                                                                                                                                                                                                                                                              
  3.750000E+02  1.250000E+02 -4.725000E+03  1.502458E-06 -9.569145E-09 -9.488007E-11  1.502427E-06  8.345084E-09 -5.326815E-11 -5.281709E-13  8.344914E-09  0.000000E+00  0.000000E+00  0.000000E+00  0.000000E+00  0.000000E+00  0.000000E+00  0.000000E+00  0.000000E+00  1.278641E+00 -7.953860E-03 -7.886393E-05  1.278616E+00                                                                                                                                                                                                                                                                                                                                                                                                                                                                                              
  6.250000E+02  1.250000E+02 -4.725000E+03  1.481007E-06 -1.090041E-08 -6.232430E-10  1.480967E-06  8.183990E-09 -6.067831E-11 -3.469347E-12  8.183765E-09  0.000000E+00  0.000000E+00  0.000000E+00  0.000000E+00  0.000000E+00  0.000000E+00  0.000000E+00  0.000000E+00  1.260600E+00 -9.060425E-03 -5.180398E-04  1.260568E+00                                                                                                                                                                                                                                                                                                                                                                                                                                                                                              
  7.600000E+02  1.250000E+02 -4.725000E+03  1.444142E-06 -5.815596E-09 -6.144821E-10  1.444130E-06  7.931093E-09 -3.237298E-11 -3.420554E-12  7.931026E-09  0.000000E+00  0.000000E+00  0.000000E+00  0.000000E+00  0.000000E+00  0.000000E+00  0.000000E+00  0.000000E+00  1.229869E+00 -4.833931E-03 -5.107585E-04  1.229859E+00                                                                                                                                                                                                                                                                                                                                                                                                                                                                                              
  7.800000E+02  1.250000E+02 -4.725000E+03  1.444096E-06 -3.585553E-10 -6.531881E-10  1.444095E-06  7.930606E-09 -1.995925E-12 -3.636012E-12  7.930605E-09  0.000000E+00  0.000000E+00  0.000000E+00  0.000000E+00  0.000000E+00  0.000000E+00  0.000000E+00  0.000000E+00  1.229826E+00 -2.980316E-04 -5.429311E-04  1.229826E+00                                                                                                                                                                                                                                                                                                                                                                                                                                                                                              
  8.000000E+02  1.250000E+02 -4.725000E+03  1.443844E-06  5.124723E-09 -7.053116E-10  1.443835E-06  7.929056E-09  2.852718E-11 -3.926161E-12  7.929003E-09  0.000000E+00  0.000000E+00  0.000000E+00  0.000000E+00  0.000000E+00  0.000000E+00  0.000000E+00  0.000000E+00  1.229621E+00  4.259676E-03 -5.862562E-04  1.229613E+00                                                                                                                                                                                                                                                                                                                                                                                                                                                                                              
  9.350000E+02  1.250000E+02 -4.725000E+03  1.480693E-06  1.057858E-08 -1.042726E-09  1.480655E-06  8.181399E-09  5.888683E-11 -5.804435E-12  8.181185E-09  0.000000E+00  0.000000E+00  0.000000E+00  0.000000E+00  0.000000E+00  0.000000E+00  0.000000E+00  0.000000E+00  1.260334E+00  8.792925E-03 -8.667147E-04  1.260303E+00                                                                                                                                                                                                                                                                                                                                                                                                                                                                                              
  1.185000E+03  1.250000E+02 -4.725000E+03  1.502210E-06  9.682591E-09 -2.897121E-10  1.502178E-06  8.342866E-09  5.389965E-11 -1.612745E-12  8.342692E-09  0.000000E+00  0.000000E+00  0.000000E+00  0.000000E+00  0.000000E+00  0.000000E+00  0.000000E+00  0.000000E+00  1.278431E+00  8.048158E-03 -2.408076E-04  1.278406E+00                                                                                                                                                                                                                                                                                                                                                                                                                                                                                              