Title="TOUGHREACT V3.30-OMP flowvector.tec: Liq & Gas Fluxes (kg/s/m^2), Pore Velocities (m/s), & Heat Fluxes (J/s/m2)"                                                                                                                                                                                                                                                                                                                                                                                                                                                                                                                                                                                                                                                                                                         
Variables= "X(m)"     "Y(m)"      "Z(m)"     "FluxLiq"   "FluxLiq_X"   "FluxLiq_Y"   "FluxLiq_Z"   "PorVelLiq"  "PorVelLiqX"  "PorVelLiqY"  "PorVelLiqZ"     "FluxGas"   "FluxGas_X"   "FluxGas_Y"   "FluxGas_Z"   "PorVelGas"  "PorVelGasX"  "PorVelGasY"  "PorVelGasZ"    "HeatFlux"  "HeatFlux_X"  "HeatFlux_Y"  "HeatFlux_Z"                                                                                                                                                                                                                                                                                                                                                                                                                                                                                                
Zone T= "5.18400000E+05 sec" I=     9 J=    10 K=    23 F=Point
  1.250000E+02  1.250000E+02 -5.425000E+03  3.496197E-07  5.949223E-17  1.382477E-17  3.496197E-07  1.976983E-09  3.376880E-19  7.847174E-20  1.976983E-09  0.000000E+00  0.000000E+00  0.000000E+00  0.000000E+00  0.000000E+00  0.000000E+00  0.000000E+00  0.000000E+00  3.321912E-01  5.652655E-11  1.313561E-11  3.321912E-01                                                                                                                                                                                                                                                                                                                                                                                                                                                                                              
  3.750000E+02  1.250000E+02 -5.425000E+03  3.496197E-07  8.269565E-19 -5.825666E-17  3.496197E-07  1.976983E-09  4.693946E-21 -3.306747E-19  1.976983E-09  0.000000E+00  0.000000E+00  0.000000E+00  0.000000E+00  0.000000E+00  0.000000E+00  0.000000E+00  0.000000E+00  3.321912E-01  7.857329E-13 -5.535257E-11  3.321912E-01                                                                                                                                                                                                                                                                                                                                                                                                                                                                                              
  6.250000E+02  1.250000E+02 -5.425000E+03  3.496197E-07 -4.407192E-17 -1.165522E-17  3.496197E-07  1.976983E-09 -2.501597E-19 -6.615703E-20  1.976983E-09  0.000000E+00  0.000000E+00  0.000000E+00  0.000000E+00  0.000000E+00  0.000000E+00  0.000000E+00  0.000000E+00  3.321912E-01 -4.187494E-11 -1.107421E-11  3.321912E-01                                                                                                                                                                                                                                                                                                                                                                                                                                                                                              
  7.600000E+02  1.250000E+02 -5.425000E+03  3.496197E-07 -1.416771E-16  4.988980E-17  3.496197E-07  1.976983E-09 -8.041834E-19  2.831830E-19  1.976983E-09  0.000000E+00  0.000000E+00  0.000000E+00  0.000000E+00  0.000000E+00  0.000000E+00  0.000000E+00  0.000000E+00  3.321912E-01 -1.346145E-10  4.740281E-11  3.321912E-01                                                                                                                                                                                                                                                                                                                                                                                                                                                                                              
  7.800000E+02  1.250000E+02 -5.425000E+03  3.496197E-07 -5.304683E-16  7.140040E-17  3.496197E-07  1.976983E-09 -3.011028E-18  4.052808E-19  1.976983E-09  0.000000E+00  0.000000E+00  0.000000E+00  0.000000E+00  0.000000E+00  0.000000E+00  0.000000E+00  0.000000E+00  3.321912E-01 -5.040246E-10  6.784111E-11  3.321912E-01                                                                                                                                                                                                                                                                                                                                                                                                                                                                                              
  8.000000E+02  1.250000E+02 -5.425000E+03  3.496197E-07 -3.511728E-16  7.516548E-17  3.496197E-07  1.976983E-09 -1.993316E-18  4.266521E-19  1.976983E-09  0.000000E+00  0.000000E+00  0.000000E+00  0.000000E+00  0.000000E+00  0.000000E+00  0.000000E+00  0.000000E+00  3.321912E-01 -3.336669E-10  7.141850E-11  3.321912E-01                                                                                                                                                                                                                                                                                                                                                                                                                                                                                              
  9.350000E+02  1.250000E+02 -5.425000E+03  3.496197E-07  7.906353E-17  3.269883E-17  3.496197E-07  1.976983E-09  4.487781E-19  1.856042E-19  1.976983E-09  0.000000E+00  0.000000E+00  0.000000E+00  0.000000E+00  0.000000E+00  0.000000E+00  0.000000E+00  0.000000E+00  3.321912E-01  7.512223E-11  3.106880E-11  3.321912E-01                                                                                                                                                                                                                                                                                                                                                                                                                                                                                              
  1.185000E+03  1.250000E+02 -5.425000E+03  3.496197E-07  2.352448E-17 -1.890325E-17  3.496197E-07  1.976983E-09  1.335290E-19 -1.072981E-19  1.976983E-09  0.000000E+00  0.000000E+00  0.000000E+00  0.000000E+00  0.000000E+00  0.000000E+00  0.000000E+00  0.000000E+00  3.321912E-01  2.235179E-11 -1.796093E-11  3.321912E-01                                                                                                                                                                                                                                                                                                                                                                                                                                                                                              
  1.435000E+03  1.250000E+02 -5.425000E+03  3.496197E-07 -3.251398E-17 -8.483601E-18  3.496197E-07  1.976983E-09 -1.845549E-19 -4.815437E-20  1.976983E-09  0.000000E+00  0.000000E+00  0.000000E+00  0.000000E+00  0.000000E+00  0.000000E+00  0.000000E+00  0.000000E+00  3.321912E-01 -3.089317E-11 -8.060695E-12  3.321912E-01                                                                                                                                                                                                                                                                                                                                                                                                                                                                                              
  1.250000E+02  1.250000E+02 -5.225000E+03  6.744260E-07 -1.506368E-17  8.326418E-18  6.744260E-07  3.798305E-09 -8.485789E-20  4.690502E-20  3.798305E-09  0.000000E+00  0.000000E+00  0.000000E+00  0.000000E+00  0.000000E+00  0.000000E+00  0.000000E+00  0.000000E+00  6.298409E-01 -1.380422E-11  7.630255E-12  6.298409E-01                                                                                                                                                                                                                                                                                                                                                                                                                                                                                              
  3.750000E+02  1.250000E+02 -5.225000E+03  6.744260E-07  1.339840E-17 -1.204714E-17  6.744260E-07  3.798305E-09  7.547688E-20 -6.786487E-20  3.798305E-09  0.000000E+00  0.000000E+00  0.000000E+00  0.000000E+00  0.000000E+00  0.000000E+00  0.000000E+00  0.000000E+00  6.298409E-01  1.227817E-11 -1.103989E-11  6.298409E-01                                                                                                                                                                                                                                                                                                                                                                                                                                                                                              
  6.250000E+02  1.250000E+02 -5.225000E+03  6.744260E-07  7.167134E-17 -1.016299E-17  6.744260E-07  3.798305E-09  4.037445E-19 -5.725093E-20  3.798305E-09  0.000000E+00  0.000000E+00  0.000000E+00  0.000000E+00  0.000000E+00  0.000000E+00  0.000000E+00  0.000000E+00  6.298409E-01  6.567897E-11 -9.313271E-12  6.298409E-01                                                                                                                                                                                                                                                                                                                                                                                                                                                                                              
  7.600000E+02  1.250000E+02 -5.225000E+03  6.744260E-07 -2.744634E-17 -2.100160E-17  6.744260E-07  3.798305E-09 -1.546128E-19 -1.183079E-19  3.798305E-09  0.000000E+00  0.000000E+00  0.000000E+00  0.000000E+00  0.000000E+00  0.000000E+00  0.000000E+00  0.000000E+00  6.298409E-01 -2.515158E-11 -1.924568E-11  6.298409E-01                                                                                                                                                                                                                                                                                                                                                                                                                                                                                              
  7.800000E+02  1.250000E+02 -5.225000E+03  6.744260E-07 -6.232918E-17 -1.828005E-17  6.744260E-07  3.798305E-09 -3.511176E-19 -1.029766E-19  3.798305E-09  0.000000E+00  0.000000E+00  0.000000E+00  0.000000E+00  0.000000E+00  0.000000E+00  0.000000E+00  0.000000E+00  6.298409E-01 -5.711791E-11 -1.675168E-11  6.298409E-01                                                                                                                                                                                                                                                                                                                                                                                                                                                                                              
  8.000000E+02  1.250000E+02 -5.225000E+03  6.744260E-07  3.533221E-18 -2.473184E-17  6.744260E-07  3.798305E-09  1.990361E-20 -1.393213E-19  3.798305E-09  0.000000E+00  0.000000E+00  0.000000E+00  0.000000E+00  0.000000E+00  0.000000E+00  0.000000E+00  0.000000E+00  6.298409E-01  3.237812E-12 -2.266404E-11  6.298409E-01                                                                                                                                                                                                                                                                                                                                                                                                                                                                                              
  9.350000E+02  1.250000E+02 -5.225000E+03  6.744260E-07 -5.437107E-17 -1.265615E-18  6.744260E-07  3.798305E-09 -3.062873E-19 -7.129563E-21  3.798305E-09  0.000000E+00  0.000000E+00  0.000000E+00  0.000000E+00  0.000000E+00  0.000000E+00  0.000000E+00  0.000000E+00  6.298409E-01 -4.982516E-11 -1.159799E-12  6.298409E-01                                                                                                                                                                                                                                                                                                                                                                                                                                                                                              
  1.185000E+03  1.250000E+02 -5.225000E+03  6.744260E-07 -2.486506E-17  3.084105E-17  6.744260E-07  3.798305E-09 -1.400718E-19  1.737362E-19  3.798305E-09  0.000000E+00  0.000000E+00  0.000000E+00  0.000000E+00  0.000000E+00  0.000000E+00  0.000000E+00  0.000000E+00  6.298409E-01 -2.278612E-11  2.826246E-11  6.298409E-01                                                                                                                                                                                                                                                                                                                                                                                                                                                                                              
  1.435000E+03  1.250000E+02 -5.225000E+03  6.744260E-07  2.471281E-17 -3.173555E-17  6.744260E-07  3.798305E-09  1.392141E-19 -1.787751E-19  3.798305E-09  0.000000E+00  0.000000E+00  0.000000E+00  0.000000E+00  0.000000E+00  0.000000E+00  0.000000E+00  0.000000E+00  6.298409E-01  2.264660E-11 -2.908217E-11  6.298409E-01                                                                                                                                                                                                                                                                                                                                                                                                                                                                                              
  1.250000E+02  1.250000E+02 -4.975000E+03  6.283156E-07  1.595653E-15 -2.877087E-16  6.283156E-07  3.507936E-09  8.906583E-18 -1.605927E-18  3.507936E-09  0.000000E+00  0.000000E+00  0.000000E+00  0.000000E+00  0.000000E+00  0.000000E+00  0.000000E+00  0.000000E+00  5.630033E-01  1.395056E-09 -2.515395E-10  5.630033E-01                                                                                                                                                                                                                                                                                                                                                                                                                                                                                              
  3.750000E+02  1.250000E+02 -4.975000E+03  6.283159E-07  4.807117E-15 -3.308235E-16  6.283159E-07  3.507938E-09  2.683227E-17 -1.846584E-18  3.507938E-09  0.000000E+00  0.000000E+00  0.000000E+00  0.000000E+00  0.000000E+00  0.000000E+00  0.000000E+00  0.000000E+00  5.630036E-01  4.202792E-09 -2.892341E-10  5.630036E-01                                                                                                                                                                                                                                                                                                                                                                                                                                                                                              
  6.250000E+02  1.250000E+02 -4.975000E+03  6.283164E-07  7.633209E-15 -2.658790E-16  6.283164E-07  3.507941E-09  4.260690E-17 -1.484078E-18  3.507941E-09  0.000000E+00  0.000000E+00  0.000000E+00  0.000000E+00  0.000000E+00  0.000000E+00  0.000000E+00  0.000000E+00  5.630041E-01  6.673604E-09 -2.324542E-10  5.630041E-01                                                                                                                                                                                                                                                                                                                                                                                                                                                                                              
  7.600000E+02  1.250000E+02 -4.975000E+03  6.283169E-07  6.204579E-15 -2.552919E-16  6.283169E-07  3.507944E-09  3.463260E-17 -1.424983E-18  3.507944E-09  0.000000E+00  0.000000E+00  0.000000E+00  0.000000E+00  0.000000E+00  0.000000E+00  0.000000E+00  0.000000E+00  5.630045E-01  5.424573E-09 -2.231980E-10  5.630045E-01                                                                                                                                                                                                                                                                                                                                                                                                                                                                                              
  7.800000E+02  1.250000E+02 -4.975000E+03  6.283169E-07  6.196998E-16 -2.795768E-16  6.283169E-07  3.507944E-09  3.459028E-18 -1.560536E-18  3.507944E-09  0.000000E+00  0.000000E+00  0.000000E+00  0.000000E+00  0.000000E+00  0.000000E+00  0.000000E+00  0.000000E+00  5.630045E-01  5.417945E-10 -2.444299E-10  5.630045E-01                                                                                                                                                                                                                                                                                                                                                                                                                                                                                              
  8.000000E+02  1.250000E+02 -4.975000E+03  6.283169E-07 -5.170455E-15 -2.848565E-16  6.283169E-07  3.507944E-09 -2.886035E-17 -1.590007E-18  3.507944E-09  0.000000E+00  0.000000E+00  0.000000E+00  0.000000E+00  0.000000E+00  0.000000E+00  0.000000E+00  0.000000E+00  5.630045E-01 -4.520454E-09 -2.490459E-10  5.630045E-01                                                                                                                                                                                                                                                                                                                                                                                                                                                                                              
  9.350000E+02  1.250000E+02 -4.975000E+03  6.283165E-07 -7.019614E-15 -2.852073E-16  6.283165E-07  3.507941E-09 -3.918194E-17 -1.591965E-18  3.507941E-09  0.000000E+00  0.000000E+00  0.000000E+00  0.000000E+00  0.000000E+00  0.000000E+00  0.000000E+00  0.000000E+00  5.630041E-01 -6.137146E-09 -2.493526E-10  5.630041E-01                                                                                                                                                                                                                                                                                                                                                                                                                                                                                              
  1.185000E+03  1.250000E+02 -4.975000E+03  6.283160E-07 -4.552536E-15 -1.793080E-16  6.283160E-07  3.507939E-09 -2.541126E-17 -1.000858E-18  3.507939E-09  0.000000E+00  0.000000E+00  0.000000E+00  0.000000E+00  0.000000E+00  0.000000E+00  0.000000E+00  0.000000E+00  5.630037E-01 -3.980216E-09 -1.567663E-10  5.630037E-01                                                                                                                                                                                                                                                                                                                                                                                                                                                                                              
  1.435000E+03  1.250000E+02 -4.975000E+03  6.283157E-07 -1.540243E-15 -5.186510E-17  6.283157E-07  3.507937E-09 -8.597299E-18 -2.894996E-19  3.507937E-09  0.000000E+00  0.000000E+00  0.000000E+00  0.000000E+00  0.000000E+00  0.000000E+00  0.000000E+00  0.000000E+00  5.630035E-01 -1.346612E-09 -4.534490E-11  5.630035E-01                                                                                                                                                                                                                                                                                                                                                                                                                                                                                              
  1.250000E+02  1.250000E+02 -4.725000E+03  2.677880E-06  2.686033E-13 -5.125434E-14  2.677880E-06  1.478673E-08  1.486086E-15 -2.835719E-16  1.478673E-08  0.000000E+00  0.000000E+00  0.000000E+00  0.000000E+00  0.000000E+00  0.000000E+00  0.000000E+00  0.000000E+00  2.241474E+00  2.235508E-07 -4.265751E-08  2.241474E+00                                                                                                                                                                                                                                                                                                                                                                                                                                                                                              
  3.750000E+02  1.250000E+02 -4.725000E+03  2.677898E-06  8.135253E-13 -5.953108E-14  2.677898E-06  1.478684E-08  4.500945E-15 -3.293642E-16  1.478684E-08  0.000000E+00  0.000000E+00  0.000000E+00  0.000000E+00  0.000000E+00  0.000000E+00  0.000000E+00  0.000000E+00  2.241489E+00  6.770736E-07 -4.954600E-08  2.241489E+00                                                                                                                                                                                                                                                                                                                                                                                                                                                                                              
  6.250000E+02  1.250000E+02 -4.725000E+03  2.677937E-06  1.308221E-12 -6.573139E-14  2.677937E-06  1.478705E-08  7.237922E-15 -3.636683E-16  1.478705E-08  0.000000E+00  0.000000E+00  0.000000E+00  0.000000E+00  0.000000E+00  0.000000E+00  0.000000E+00  0.000000E+00  2.241521E+00  1.088795E-06 -5.470634E-08  2.241521E+00                                                                                                                                                                                                                                                                                                                                                                                                                                                                                              
  7.600000E+02  1.250000E+02 -4.725000E+03  2.677969E-06  1.047208E-12 -5.901023E-14  2.677969E-06  1.478723E-08  5.793829E-15 -3.264825E-16  1.478723E-08  0.000000E+00  0.000000E+00  0.000000E+00  0.000000E+00  0.000000E+00  0.000000E+00  0.000000E+00  0.000000E+00  2.241548E+00  8.715612E-07 -4.911251E-08  2.241548E+00                                                                                                                                                                                                                                                                                                                                                                                                                                                                                              
  7.800000E+02  1.250000E+02 -4.725000E+03  2.677970E-06  7.120860E-14 -5.804230E-14  2.677970E-06  1.478724E-08  3.939718E-16 -3.211273E-16  1.478724E-08  0.000000E+00  0.000000E+00  0.000000E+00  0.000000E+00  0.000000E+00  0.000000E+00  0.000000E+00  0.000000E+00  2.241549E+00  5.926487E-08 -4.830693E-08  2.241549E+00                                                                                                                                                                                                                                                                                                                                                                                                                                                                                              
  8.000000E+02  1.250000E+02 -4.725000E+03  2.677969E-06 -9.061910E-13 -5.699091E-14  2.677969E-06  1.478723E-08 -5.013631E-15 -3.153104E-16  1.478723E-08  0.000000E+00  0.000000E+00  0.000000E+00  0.000000E+00  0.000000E+00  0.000000E+00  0.000000E+00  0.000000E+00  2.241549E+00 -7.541966E-07 -4.743189E-08  2.241549E+00                                                                                                                                                                                                                                                                                                                                                                                                                                                                                              
  9.350000E+02  1.250000E+02 -4.725000E+03  2.677943E-06 -1.185658E-12 -4.923251E-14  2.677943E-06  1.478708E-08 -6.559823E-15 -2.723859E-16  1.478708E-08  0.000000E+00  0.000000E+00  0.000000E+00  0.000000E+00  0.000000E+00  0.000000E+00  0.000000E+00  0.000000E+00  2.241526E+00 -9.867891E-07 -4.097480E-08  2.241526E+00                                                                                                                                                                                                                                                                                                                                                                                                                                                                                              
  1.185000E+03  1.250000E+02 -4.725000E+03  2.677912E-06 -7.342579E-13 -3.327799E-14  2.677912E-06  1.478691E-08 -4.062387E-15 -1.841153E-16  1.478691E-08  0.000000E+00  0.000000E+00  0.000000E+00  0.000000E+00  0.000000E+00  0.000000E+00  0.000000E+00  0.000000E+00  2.241500E+00 -6.111017E-07 -2.769631E-08  2.241500E+00                                                                                                                                                                                                                                                                                                                                                                                                                                                                                              