Title="TOUGHREACT V3.30-OMP flowvector.tec: Liq & Gas Fluxes (kg/s/m^2), Pore Velocities (m/s), & Heat Fluxes (J/s/m2)"                                                                                                                                                                                                                                                                                                                                                                                                                                                                                                                                                                                                                                                                                                         
Variables= "X(m)"     "Y(m)"      "Z(m)"     "FluxLiq"   "FluxLiq_X"   "FluxLiq_Y"   "FluxLiq_Z"   "PorVelLiq"  "PorVelLiqX"  "PorVelLiqY"  "PorVelLiqZ"     "FluxGas"   "FluxGas_X"   "FluxGas_Y"   "FluxGas_Z"   "PorVelGas"  "PorVelGasX"  "PorVelGasY"  "PorVelGasZ"    "HeatFlux"  "HeatFlux_X"  "HeatFlux_Y"  "HeatFlux_Z"                                                                                                                                                                                                                                                                                                                                                                                                                                                                                                
Zone T= "1.00000000E+06 sec" I=     9 J=    10 K=    23 F=Point
  1.250000E+02  1.250000E+02 -5.425000E+03  3.441262E-07  6.801495E-17  5.906434E-17  3.441262E-07  1.945940E-09  3.860692E-19  3.352634E-19  1.945940E-09  0.000000E+00  0.000000E+00  0.000000E+00  0.000000E+00  0.000000E+00  0.000000E+00  0.000000E+00  0.000000E+00  3.269709E-01  6.462429E-11  5.611988E-11  3.269709E-01                                                                                                                                                                                                                                                                                                                                                                                                                                                                                              
  3.750000E+02  1.250000E+02 -5.425000E+03  3.441262E-07 -5.367451E-17  1.379562E-17  3.441262E-07  1.945940E-09 -3.046694E-19  7.830727E-20  1.945940E-09  0.000000E+00  0.000000E+00  0.000000E+00  0.000000E+00  0.000000E+00  0.000000E+00  0.000000E+00  0.000000E+00  3.269709E-01 -5.099875E-11  1.310789E-11  3.269709E-01                                                                                                                                                                                                                                                                                                                                                                                                                                                                                              
  6.250000E+02  1.250000E+02 -5.425000E+03  3.441262E-07  1.386675E-16  2.732176E-16  3.441262E-07  1.945940E-09  7.871102E-19  1.550848E-18  1.945940E-09  0.000000E+00  0.000000E+00  0.000000E+00  0.000000E+00  0.000000E+00  0.000000E+00  0.000000E+00  0.000000E+00  3.269709E-01  1.317547E-10  2.595972E-10  3.269709E-01                                                                                                                                                                                                                                                                                                                                                                                                                                                                                              
  7.600000E+02  1.250000E+02 -5.425000E+03  3.441262E-07 -8.076364E-17  9.237620E-17  3.441262E-07  1.945940E-09 -4.584338E-19  5.243495E-19  1.945940E-09  0.000000E+00  0.000000E+00  0.000000E+00  0.000000E+00  0.000000E+00  0.000000E+00  0.000000E+00  0.000000E+00  3.269709E-01 -7.673743E-11  8.777109E-11  3.269709E-01                                                                                                                                                                                                                                                                                                                                                                                                                                                                                              
  7.800000E+02  1.250000E+02 -5.425000E+03  3.441262E-07 -3.209331E-16  1.193642E-16  3.441262E-07  1.945940E-09 -1.821693E-18  6.775401E-19  1.945940E-09  0.000000E+00  0.000000E+00  0.000000E+00  0.000000E+00  0.000000E+00  0.000000E+00  0.000000E+00  0.000000E+00  3.269709E-01 -3.049340E-10  1.134137E-10  3.269709E-01                                                                                                                                                                                                                                                                                                                                                                                                                                                                                              
  8.000000E+02  1.250000E+02 -5.425000E+03  3.441262E-07 -2.064785E-16  1.959504E-16  3.441262E-07  1.945940E-09 -1.172022E-18  1.112261E-18  1.945940E-09  0.000000E+00  0.000000E+00  0.000000E+00  0.000000E+00  0.000000E+00  0.000000E+00  0.000000E+00  0.000000E+00  3.269709E-01 -1.961852E-10  1.861819E-10  3.269709E-01                                                                                                                                                                                                                                                                                                                                                                                                                                                                                              
  9.350000E+02  1.250000E+02 -5.425000E+03  3.441262E-07  1.714093E-17  1.374211E-16  3.441262E-07  1.945940E-09  9.729606E-20  7.800354E-19  1.945940E-09  0.000000E+00  0.000000E+00  0.000000E+00  0.000000E+00  0.000000E+00  0.000000E+00  0.000000E+00  0.000000E+00  3.269709E-01  1.628643E-11  1.305705E-10  3.269709E-01                                                                                                                                                                                                                                                                                                                                                                                                                                                                                              
  1.185000E+03  1.250000E+02 -5.425000E+03  3.441262E-07  2.096001E-16  3.108393E-17  3.441262E-07  1.945940E-09  1.189740E-18  1.764399E-19  1.945940E-09  0.000000E+00  0.000000E+00  0.000000E+00  0.000000E+00  0.000000E+00  0.000000E+00  0.000000E+00  0.000000E+00  3.269709E-01  1.991512E-10  2.953435E-11  3.269709E-01                                                                                                                                                                                                                                                                                                                                                                                                                                                                                              
  1.435000E+03  1.250000E+02 -5.425000E+03  3.441262E-07 -3.420692E-17 -1.439493E-16  3.441262E-07  1.945940E-09 -1.941667E-19 -8.170905E-19  1.945940E-09  0.000000E+00  0.000000E+00  0.000000E+00  0.000000E+00  0.000000E+00  0.000000E+00  0.000000E+00  0.000000E+00  3.269709E-01 -3.250165E-11 -1.367731E-10  3.269709E-01                                                                                                                                                                                                                                                                                                                                                                                                                                                                                              
  1.250000E+02  1.250000E+02 -5.225000E+03  6.690170E-07  3.887247E-17  5.082445E-17  6.690170E-07  3.767736E-09  2.189793E-19  2.863081E-19  3.767736E-09  0.000000E+00  0.000000E+00  0.000000E+00  0.000000E+00  0.000000E+00  0.000000E+00  0.000000E+00  0.000000E+00  6.246980E-01  3.562239E-11  4.657508E-11  6.246980E-01                                                                                                                                                                                                                                                                                                                                                                                                                                                                                              
  3.750000E+02  1.250000E+02 -5.225000E+03  6.690170E-07  4.699906E-17 -2.832885E-17  6.690170E-07  3.767736E-09  2.647586E-19 -1.595842E-19  3.767736E-09  0.000000E+00  0.000000E+00  0.000000E+00  0.000000E+00  0.000000E+00  0.000000E+00  0.000000E+00  0.000000E+00  6.246980E-01  4.306952E-11 -2.596031E-11  6.246980E-01                                                                                                                                                                                                                                                                                                                                                                                                                                                                                              
  6.250000E+02  1.250000E+02 -5.225000E+03  6.690170E-07  6.056979E-17  5.420260E-17  6.690170E-07  3.767736E-09  3.412063E-19  3.053381E-19  3.767736E-09  0.000000E+00  0.000000E+00  0.000000E+00  0.000000E+00  0.000000E+00  0.000000E+00  0.000000E+00  0.000000E+00  6.246980E-01  5.550563E-11  4.967078E-11  6.246980E-01                                                                                                                                                                                                                                                                                                                                                                                                                                                                                              
  7.600000E+02  1.250000E+02 -5.225000E+03  6.690170E-07  1.011765E-15  5.971231E-17  6.690170E-07  3.767736E-09  5.699553E-18  3.363758E-19  3.767736E-09  0.000000E+00  0.000000E+00  0.000000E+00  0.000000E+00  0.000000E+00  0.000000E+00  0.000000E+00  0.000000E+00  6.246980E-01  9.271730E-10  5.471983E-11  6.246980E-01                                                                                                                                                                                                                                                                                                                                                                                                                                                                                              
  7.800000E+02  1.250000E+02 -5.225000E+03  6.690170E-07  1.175809E-15 -2.122047E-18  6.690170E-07  3.767736E-09  6.623656E-18 -1.195407E-20  3.767736E-09  0.000000E+00  0.000000E+00  0.000000E+00  0.000000E+00  0.000000E+00  0.000000E+00  0.000000E+00  0.000000E+00  6.246980E-01  1.077501E-09 -1.944625E-12  6.246980E-01                                                                                                                                                                                                                                                                                                                                                                                                                                                                                              
  8.000000E+02  1.250000E+02 -5.225000E+03  6.690170E-07  2.542861E-17 -2.696808E-17  6.690170E-07  3.767736E-09  1.432464E-19 -1.519186E-19  3.767736E-09  0.000000E+00  0.000000E+00  0.000000E+00  0.000000E+00  0.000000E+00  0.000000E+00  0.000000E+00  0.000000E+00  6.246980E-01  2.330256E-11 -2.471331E-11  6.246980E-01                                                                                                                                                                                                                                                                                                                                                                                                                                                                                              
  9.350000E+02  1.250000E+02 -5.225000E+03  6.690170E-07 -2.117363E-16  4.182240E-17  6.690170E-07  3.767736E-09 -1.192769E-18  2.355971E-19  3.767736E-09  0.000000E+00  0.000000E+00  0.000000E+00  0.000000E+00  0.000000E+00  0.000000E+00  0.000000E+00  0.000000E+00  6.246980E-01 -1.940333E-10  3.832568E-11  6.246980E-01                                                                                                                                                                                                                                                                                                                                                                                                                                                                                              
  1.185000E+03  1.250000E+02 -5.225000E+03  6.690170E-07 -3.531352E-17 -6.480332E-17  6.690170E-07  3.767736E-09 -1.989308E-19 -3.650549E-19  3.767736E-09  0.000000E+00  0.000000E+00  0.000000E+00  0.000000E+00  0.000000E+00  0.000000E+00  0.000000E+00  0.000000E+00  6.246980E-01 -3.236100E-11 -5.938519E-11  6.246980E-01                                                                                                                                                                                                                                                                                                                                                                                                                                                                                              
  1.435000E+03  1.250000E+02 -5.225000E+03  6.690170E-07 -1.463546E-17 -2.387541E-17  6.690170E-07  3.767736E-09 -8.244559E-20 -1.344967E-19  3.767736E-09  0.000000E+00  0.000000E+00  0.000000E+00  0.000000E+00  0.000000E+00  0.000000E+00  0.000000E+00  0.000000E+00  6.246980E-01 -1.341181E-11 -2.187921E-11  6.246980E-01                                                                                                                                                                                                                                                                                                                                                                                                                                                                                              
  1.250000E+02  1.250000E+02 -4.975000E+03  6.448895E-07  3.995644E-15 -9.759297E-16  6.448895E-07  3.600048E-09  2.230280E-17 -5.447424E-18  3.600048E-09  0.000000E+00  0.000000E+00  0.000000E+00  0.000000E+00  0.000000E+00  0.000000E+00  0.000000E+00  0.000000E+00  5.774973E-01  3.493333E-09 -8.532413E-10  5.774973E-01                                                                                                                                                                                                                                                                                                                                                                                                                                                                                              
  3.750000E+02  1.250000E+02 -4.975000E+03  6.448899E-07  1.221625E-14 -1.030998E-15  6.448899E-07  3.600050E-09  6.818840E-17 -5.754802E-18  3.600050E-09  0.000000E+00  0.000000E+00  0.000000E+00  0.000000E+00  0.000000E+00  0.000000E+00  0.000000E+00  0.000000E+00  5.774976E-01  1.068049E-08 -9.013865E-10  5.774976E-01                                                                                                                                                                                                                                                                                                                                                                                                                                                                                              
  6.250000E+02  1.250000E+02 -4.975000E+03  6.448906E-07  1.844280E-14 -1.013894E-15  6.448906E-07  3.600054E-09  1.029436E-16 -5.659332E-18  3.600054E-09  0.000000E+00  0.000000E+00  0.000000E+00  0.000000E+00  0.000000E+00  0.000000E+00  0.000000E+00  0.000000E+00  5.774983E-01  1.612427E-08 -8.864329E-10  5.774983E-01                                                                                                                                                                                                                                                                                                                                                                                                                                                                                              
  7.600000E+02  1.250000E+02 -4.975000E+03  6.448912E-07  1.379213E-14 -9.803880E-16  6.448912E-07  3.600058E-09  7.698461E-17 -5.472309E-18  3.600058E-09  0.000000E+00  0.000000E+00  0.000000E+00  0.000000E+00  0.000000E+00  0.000000E+00  0.000000E+00  0.000000E+00  5.774988E-01  1.205826E-08 -8.571391E-10  5.774988E-01                                                                                                                                                                                                                                                                                                                                                                                                                                                                                              
  7.800000E+02  1.250000E+02 -4.975000E+03  6.448912E-07  7.132721E-16 -9.438267E-16  6.448912E-07  3.600058E-09  3.981327E-18 -5.268232E-18  3.600058E-09  0.000000E+00  0.000000E+00  0.000000E+00  0.000000E+00  0.000000E+00  0.000000E+00  0.000000E+00  0.000000E+00  5.774988E-01  6.236035E-10 -8.251741E-10  5.774988E-01                                                                                                                                                                                                                                                                                                                                                                                                                                                                                              
  8.000000E+02  1.250000E+02 -4.975000E+03  6.448912E-07 -1.171224E-14 -9.042195E-16  6.448912E-07  3.600058E-09 -6.537514E-17 -5.047153E-18  3.600058E-09  0.000000E+00  0.000000E+00  0.000000E+00  0.000000E+00  0.000000E+00  0.000000E+00  0.000000E+00  0.000000E+00  5.774988E-01 -1.023984E-08 -7.905460E-10  5.774988E-01                                                                                                                                                                                                                                                                                                                                                                                                                                                                                              
  9.350000E+02  1.250000E+02 -4.975000E+03  6.448907E-07 -1.621621E-14 -8.945738E-16  6.448907E-07  3.600055E-09 -9.051530E-17 -4.993313E-18  3.600055E-09  0.000000E+00  0.000000E+00  0.000000E+00  0.000000E+00  0.000000E+00  0.000000E+00  0.000000E+00  0.000000E+00  5.774984E-01 -1.417760E-08 -7.821130E-10  5.774984E-01                                                                                                                                                                                                                                                                                                                                                                                                                                                                                              
  1.185000E+03  1.250000E+02 -4.975000E+03  6.448900E-07 -1.105605E-14 -5.405361E-16  6.448900E-07  3.600051E-09 -6.171245E-17 -3.017153E-18  3.600051E-09  0.000000E+00  0.000000E+00  0.000000E+00  0.000000E+00  0.000000E+00  0.000000E+00  0.000000E+00  0.000000E+00  5.774978E-01 -9.666149E-09 -4.725829E-10  5.774978E-01                                                                                                                                                                                                                                                                                                                                                                                                                                                                                              
  1.435000E+03  1.250000E+02 -4.975000E+03  6.448897E-07 -3.695419E-15 -3.633234E-16  6.448897E-07  3.600049E-09 -2.062701E-17 -2.027991E-18  3.600049E-09  0.000000E+00  0.000000E+00  0.000000E+00  0.000000E+00  0.000000E+00  0.000000E+00  0.000000E+00  0.000000E+00  5.774975E-01 -3.230851E-09 -3.176484E-10  5.774975E-01                                                                                                                                                                                                                                                                                                                                                                                                                                                                                              
  1.250000E+02  1.250000E+02 -4.725000E+03  3.048385E-06  3.641619E-13 -9.907337E-14  3.048385E-06  1.683292E-08  2.014871E-15 -5.481629E-16  1.683292E-08  0.000000E+00  0.000000E+00  0.000000E+00  0.000000E+00  0.000000E+00  0.000000E+00  0.000000E+00  0.000000E+00  2.550500E+00  3.030778E-07 -8.245492E-08  2.550500E+00                                                                                                                                                                                                                                                                                                                                                                                                                                                                                              
  3.750000E+02  1.250000E+02 -4.725000E+03  3.048399E-06  1.107754E-12 -1.130517E-13  3.048399E-06  1.683300E-08  6.129092E-15 -6.255038E-16  1.683300E-08  0.000000E+00  0.000000E+00  0.000000E+00  0.000000E+00  0.000000E+00  0.000000E+00  0.000000E+00  0.000000E+00  2.550512E+00  9.219408E-07 -9.408857E-08  2.550512E+00                                                                                                                                                                                                                                                                                                                                                                                                                                                                                              
  6.250000E+02  1.250000E+02 -4.725000E+03  3.048429E-06  1.729311E-12 -1.252575E-13  3.048429E-06  1.683316E-08  9.568102E-15 -6.930368E-16  1.683316E-08  0.000000E+00  0.000000E+00  0.000000E+00  0.000000E+00  0.000000E+00  0.000000E+00  0.000000E+00  0.000000E+00  2.550537E+00  1.439238E-06 -1.042469E-07  2.550537E+00                                                                                                                                                                                                                                                                                                                                                                                                                                                                                              
  7.600000E+02  1.250000E+02 -4.725000E+03  3.048454E-06  1.360977E-12 -1.138079E-13  3.048454E-06  1.683330E-08  7.530150E-15 -6.296877E-16  1.683330E-08  0.000000E+00  0.000000E+00  0.000000E+00  0.000000E+00  0.000000E+00  0.000000E+00  0.000000E+00  0.000000E+00  2.550557E+00  1.132689E-06 -9.471790E-08  2.550557E+00                                                                                                                                                                                                                                                                                                                                                                                                                                                                                              
  7.800000E+02  1.250000E+02 -4.725000E+03  3.048455E-06  1.313282E-13 -1.113223E-13  3.048455E-06  1.683331E-08  7.266254E-16 -6.159350E-16  1.683331E-08  0.000000E+00  0.000000E+00  0.000000E+00  0.000000E+00  0.000000E+00  0.000000E+00  0.000000E+00  0.000000E+00  2.550558E+00  1.092993E-07 -9.264921E-08  2.550558E+00                                                                                                                                                                                                                                                                                                                                                                                                                                                                                              
  8.000000E+02  1.250000E+02 -4.725000E+03  3.048454E-06 -1.095715E-12 -1.098390E-13  3.048454E-06  1.683331E-08 -6.062478E-15 -6.077280E-16  1.683331E-08  0.000000E+00  0.000000E+00  0.000000E+00  0.000000E+00  0.000000E+00  0.000000E+00  0.000000E+00  0.000000E+00  2.550558E+00 -9.119207E-07 -9.141472E-08  2.550558E+00                                                                                                                                                                                                                                                                                                                                                                                                                                                                                              
  9.350000E+02  1.250000E+02 -4.725000E+03  3.048435E-06 -1.494283E-12 -9.416098E-14  3.048435E-06  1.683320E-08 -8.267719E-15 -5.209832E-16  1.683320E-08  0.000000E+00  0.000000E+00  0.000000E+00  0.000000E+00  0.000000E+00  0.000000E+00  0.000000E+00  0.000000E+00  2.550542E+00 -1.243634E-06 -7.836653E-08  2.550542E+00                                                                                                                                                                                                                                                                                                                                                                                                                                                                                              
  1.185000E+03  1.250000E+02 -4.725000E+03  3.048412E-06 -9.581301E-13 -6.524854E-14  3.048412E-06  1.683307E-08 -5.301237E-15 -3.610136E-16  1.683307E-08  0.000000E+00  0.000000E+00  0.000000E+00  0.000000E+00  0.000000E+00  0.000000E+00  0.000000E+00  0.000000E+00  2.550523E+00 -7.974145E-07 -5.430383E-08  2.550523E+00                                                                                                                                                                                                                                                                                                                                                                                                                                                                                              