Title="TOUGHREACT V3.30-OMP flowdata.tec: P,T,SAT & Other Variables"                                                                                                                                                                                                                                                                                                                                                                                                                                                                                                                                                                                                                                                                                                                                                            
Variables= "X(m)"     "Y(m)"      "Z(m)"       "P(Pa)"        "T(C)"      "SatGas"      "SatLiq"          "X1"          "X2"    "Pcap(Pa)"  "DGas_kg/m3"  "DLiq_kg/m3"    "Porosity"  "Perm_X(m2)"  "Perm_Y(m2)"  "Perm_Z(m2)"    "Krel_Gas"    "Krel_Liq"                                                                                                                                                                                                                                                                                                                                                                                                                                                                                                                                                                      
Zone T= "1.00000000E+10 sec" I=     9 J=    10 K=    23 F=Point
  1.250000E+02  1.250000E+02 -5.425000E+03  5.096011E+07  2.191415E+02  0.000000E+00  1.000000E+00  1.000000E+00  0.000000E+00  0.000000E+00  1.143575E+01  8.781930E+02  1.994312E-01  1.000000E-16  1.000000E-16  1.000000E-16  0.000000E+00  1.000000E+00                                                                                                                                                                                                                                                                                                                                                                                                                                                                                                                                                                    
  3.750000E+02  1.250000E+02 -5.425000E+03  5.096012E+07  2.191416E+02  0.000000E+00  1.000000E+00  1.000000E+00  0.000000E+00  0.000000E+00  1.143578E+01  8.781928E+02  1.994312E-01  1.000000E-16  1.000000E-16  1.000000E-16  0.000000E+00  1.000000E+00                                                                                                                                                                                                                                                                                                                                                                                                                                                                                                                                                                    
  6.250000E+02  1.250000E+02 -5.425000E+03  5.096016E+07  2.191418E+02  0.000000E+00  1.000000E+00  1.000000E+00  0.000000E+00  0.000000E+00  1.143582E+01  8.781927E+02  1.994312E-01  1.000000E-16  1.000000E-16  1.000000E-16  0.000000E+00  1.000000E+00                                                                                                                                                                                                                                                                                                                                                                                                                                                                                                                                                                    
  7.600000E+02  1.250000E+02 -5.425000E+03  5.096022E+07  2.191419E+02  0.000000E+00  1.000000E+00  1.000000E+00  0.000000E+00  0.000000E+00  1.143583E+01  8.781927E+02  1.994313E-01  1.000000E-16  1.000000E-16  1.000000E-16  0.000000E+00  1.000000E+00                                                                                                                                                                                                                                                                                                                                                                                                                                                                                                                                                                    
  7.800000E+02  1.250000E+02 -5.425000E+03  5.096023E+07  2.191419E+02  0.000000E+00  1.000000E+00  1.000000E+00  0.000000E+00  0.000000E+00  1.143583E+01  8.781927E+02  1.994313E-01  1.000000E-16  1.000000E-16  1.000000E-16  0.000000E+00  1.000000E+00                                                                                                                                                                                                                                                                                                                                                                                                                                                                                                                                                                    
  8.000000E+02  1.250000E+02 -5.425000E+03  5.096024E+07  2.191419E+02  0.000000E+00  1.000000E+00  1.000000E+00  0.000000E+00  0.000000E+00  1.143583E+01  8.781927E+02  1.994313E-01  1.000000E-16  1.000000E-16  1.000000E-16  0.000000E+00  1.000000E+00                                                                                                                                                                                                                                                                                                                                                                                                                                                                                                                                                                    
  9.350000E+02  1.250000E+02 -5.425000E+03  5.096031E+07  2.191419E+02  0.000000E+00  1.000000E+00  1.000000E+00  0.000000E+00  0.000000E+00  1.143584E+01  8.781927E+02  1.994313E-01  1.000000E-16  1.000000E-16  1.000000E-16  0.000000E+00  1.000000E+00                                                                                                                                                                                                                                                                                                                                                                                                                                                                                                                                                                    
  1.185000E+03  1.250000E+02 -5.425000E+03  5.096046E+07  2.191418E+02  0.000000E+00  1.000000E+00  1.000000E+00  0.000000E+00  0.000000E+00  1.143582E+01  8.781929E+02  1.994314E-01  1.000000E-16  1.000000E-16  1.000000E-16  0.000000E+00  1.000000E+00                                                                                                                                                                                                                                                                                                                                                                                                                                                                                                                                                                    
  1.435000E+03  1.250000E+02 -5.425000E+03  5.096055E+07  2.191417E+02  0.000000E+00  1.000000E+00  1.000000E+00  0.000000E+00  0.000000E+00  1.143579E+01  8.781931E+02  1.994315E-01  1.000000E-16  1.000000E-16  1.000000E-16  0.000000E+00  1.000000E+00                                                                                                                                                                                                                                                                                                                                                                                                                                                                                                                                                                    
  1.250000E+02  1.250000E+02 -5.225000E+03  4.922912E+07  2.095047E+02  0.000000E+00  1.000000E+00  1.000000E+00  0.000000E+00  0.000000E+00  9.500987E+00  8.872014E+02  1.995590E-01  1.000000E-16  1.000000E-16  1.000000E-16  0.000000E+00  1.000000E+00                                                                                                                                                                                                                                                                                                                                                                                                                                                                                                                                                                    
  3.750000E+02  1.250000E+02 -5.225000E+03  4.922911E+07  2.095051E+02  0.000000E+00  1.000000E+00  1.000000E+00  0.000000E+00  0.000000E+00  9.501054E+00  8.872011E+02  1.995590E-01  1.000000E-16  1.000000E-16  1.000000E-16  0.000000E+00  1.000000E+00                                                                                                                                                                                                                                                                                                                                                                                                                                                                                                                                                                    
  6.250000E+02  1.250000E+02 -5.225000E+03  4.922914E+07  2.095053E+02  0.000000E+00  1.000000E+00  1.000000E+00  0.000000E+00  0.000000E+00  9.501104E+00  8.872008E+02  1.995590E-01  1.000000E-16  1.000000E-16  1.000000E-16  0.000000E+00  1.000000E+00                                                                                                                                                                                                                                                                                                                                                                                                                                                                                                                                                                    
  7.600000E+02  1.250000E+02 -5.225000E+03  4.922921E+07  2.095054E+02  0.000000E+00  1.000000E+00  1.000000E+00  0.000000E+00  0.000000E+00  9.501122E+00  8.872007E+02  1.995590E-01  1.000000E-16  1.000000E-16  1.000000E-16  0.000000E+00  1.000000E+00                                                                                                                                                                                                                                                                                                                                                                                                                                                                                                                                                                    
  7.800000E+02  1.250000E+02 -5.225000E+03  4.922922E+07  2.095055E+02  0.000000E+00  1.000000E+00  1.000000E+00  0.000000E+00  0.000000E+00  9.501124E+00  8.872007E+02  1.995590E-01  1.000000E-16  1.000000E-16  1.000000E-16  0.000000E+00  1.000000E+00                                                                                                                                                                                                                                                                                                                                                                                                                                                                                                                                                                    
  8.000000E+02  1.250000E+02 -5.225000E+03  4.922923E+07  2.095055E+02  0.000000E+00  1.000000E+00  1.000000E+00  0.000000E+00  0.000000E+00  9.501126E+00  8.872007E+02  1.995590E-01  1.000000E-16  1.000000E-16  1.000000E-16  0.000000E+00  1.000000E+00                                                                                                                                                                                                                                                                                                                                                                                                                                                                                                                                                                    
  9.350000E+02  1.250000E+02 -5.225000E+03  4.922930E+07  2.095055E+02  0.000000E+00  1.000000E+00  1.000000E+00  0.000000E+00  0.000000E+00  9.501139E+00  8.872007E+02  1.995591E-01  1.000000E-16  1.000000E-16  1.000000E-16  0.000000E+00  1.000000E+00                                                                                                                                                                                                                                                                                                                                                                                                                                                                                                                                                                    
  1.185000E+03  1.250000E+02 -5.225000E+03  4.922946E+07  2.095054E+02  0.000000E+00  1.000000E+00  1.000000E+00  0.000000E+00  0.000000E+00  9.501118E+00  8.872009E+02  1.995592E-01  1.000000E-16  1.000000E-16  1.000000E-16  0.000000E+00  1.000000E+00                                                                                                                                                                                                                                                                                                                                                                                                                                                                                                                                                                    
  1.435000E+03  1.250000E+02 -5.225000E+03  4.922956E+07  2.095051E+02  0.000000E+00  1.000000E+00  1.000000E+00  0.000000E+00  0.000000E+00  9.501053E+00  8.872013E+02  1.995592E-01  1.000000E-16  1.000000E-16  1.000000E-16  0.000000E+00  1.000000E+00                                                                                                                                                                                                                                                                                                                                                                                                                                                                                                                                                                    
  1.250000E+02  1.250000E+02 -4.975000E+03  4.704633E+07  2.000288E+02  0.000000E+00  1.000000E+00  1.000000E+00  0.000000E+00  0.000000E+00  7.868684E+00  8.955324E+02  1.997220E-01  1.000000E-16  1.000000E-16  1.000000E-16  0.000000E+00  1.000000E+00                                                                                                                                                                                                                                                                                                                                                                                                                                                                                                                                                                    
  3.750000E+02  1.250000E+02 -4.975000E+03  4.704627E+07  2.000298E+02  0.000000E+00  1.000000E+00  1.000000E+00  0.000000E+00  0.000000E+00  7.868851E+00  8.955313E+02  1.997220E-01  1.000000E-16  1.000000E-16  1.000000E-16  0.000000E+00  1.000000E+00                                                                                                                                                                                                                                                                                                                                                                                                                                                                                                                                                                    
  6.250000E+02  1.250000E+02 -4.975000E+03  4.704626E+07  2.000303E+02  0.000000E+00  1.000000E+00  1.000000E+00  0.000000E+00  0.000000E+00  7.868926E+00  8.955309E+02  1.997220E-01  1.000000E-16  1.000000E-16  1.000000E-16  0.000000E+00  1.000000E+00                                                                                                                                                                                                                                                                                                                                                                                                                                                                                                                                                                    
  7.600000E+02  1.250000E+02 -4.975000E+03  4.704633E+07  2.000305E+02  0.000000E+00  1.000000E+00  1.000000E+00  0.000000E+00  0.000000E+00  7.868968E+00  8.955306E+02  1.997220E-01  1.000000E-16  1.000000E-16  1.000000E-16  0.000000E+00  1.000000E+00                                                                                                                                                                                                                                                                                                                                                                                                                                                                                                                                                                    
  7.800000E+02  1.250000E+02 -4.975000E+03  4.704634E+07  2.000306E+02  0.000000E+00  1.000000E+00  1.000000E+00  0.000000E+00  0.000000E+00  7.868974E+00  8.955306E+02  1.997220E-01  1.000000E-16  1.000000E-16  1.000000E-16  0.000000E+00  1.000000E+00                                                                                                                                                                                                                                                                                                                                                                                                                                                                                                                                                                    
  8.000000E+02  1.250000E+02 -4.975000E+03  4.704635E+07  2.000306E+02  0.000000E+00  1.000000E+00  1.000000E+00  0.000000E+00  0.000000E+00  7.868979E+00  8.955306E+02  1.997220E-01  1.000000E-16  1.000000E-16  1.000000E-16  0.000000E+00  1.000000E+00                                                                                                                                                                                                                                                                                                                                                                                                                                                                                                                                                                    
  9.350000E+02  1.250000E+02 -4.975000E+03  4.704643E+07  2.000308E+02  0.000000E+00  1.000000E+00  1.000000E+00  0.000000E+00  0.000000E+00  7.869004E+00  8.955305E+02  1.997221E-01  1.000000E-16  1.000000E-16  1.000000E-16  0.000000E+00  1.000000E+00                                                                                                                                                                                                                                                                                                                                                                                                                                                                                                                                                                    
  1.185000E+03  1.250000E+02 -4.975000E+03  4.704663E+07  2.000306E+02  0.000000E+00  1.000000E+00  1.000000E+00  0.000000E+00  0.000000E+00  7.868973E+00  8.955308E+02  1.997222E-01  1.000000E-16  1.000000E-16  1.000000E-16  0.000000E+00  1.000000E+00                                                                                                                                                                                                                                                                                                                                                                                                                                                                                                                                                                    
  1.435000E+03  1.250000E+02 -4.975000E+03  4.704678E+07  2.000294E+02  0.000000E+00  1.000000E+00  1.000000E+00  0.000000E+00  0.000000E+00  7.868786E+00  8.955320E+02  1.997223E-01  1.000000E-16  1.000000E-16  1.000000E-16  0.000000E+00  1.000000E+00                                                                                                                                                                                                                                                                                                                                                                                                                                                                                                                                                                    
  1.250000E+02  1.250000E+02 -4.725000E+03  4.484506E+07  1.899371E+02  0.000000E+00  1.000000E+00  1.000000E+00  0.000000E+00  0.000000E+00  6.388848E+00  9.042362E+02  1.998696E-01  1.000000E-16  1.000000E-16  1.000000E-16  0.000000E+00  1.000000E+00                                                                                                                                                                                                                                                                                                                                                                                                                                                                                                                                                                    
  3.750000E+02  1.250000E+02 -4.725000E+03  4.484485E+07  1.899511E+02  0.000000E+00  1.000000E+00  1.000000E+00  0.000000E+00  0.000000E+00  6.390730E+00  9.042225E+02  1.998695E-01  1.000000E-16  1.000000E-16  1.000000E-16  0.000000E+00  1.000000E+00                                                                                                                                                                                                                                                                                                                                                                                                                                                                                                                                                                    
  6.250000E+02  1.250000E+02 -4.725000E+03  4.484476E+07  1.899667E+02  0.000000E+00  1.000000E+00  1.000000E+00  0.000000E+00  0.000000E+00  6.392830E+00  9.042072E+02  1.998696E-01  1.000000E-16  1.000000E-16  1.000000E-16  0.000000E+00  1.000000E+00                                                                                                                                                                                                                                                                                                                                                                                                                                                                                                                                                                    
  7.600000E+02  1.250000E+02 -4.725000E+03  4.484482E+07  1.899711E+02  0.000000E+00  1.000000E+00  1.000000E+00  0.000000E+00  0.000000E+00  6.393417E+00  9.042030E+02  1.998696E-01  1.000000E-16  1.000000E-16  1.000000E-16  0.000000E+00  1.000000E+00                                                                                                                                                                                                                                                                                                                                                                                                                                                                                                                                                                    
  7.800000E+02  1.250000E+02 -4.725000E+03  4.484483E+07  1.899742E+02  0.000000E+00  1.000000E+00  1.000000E+00  0.000000E+00  0.000000E+00  6.393835E+00  9.042000E+02  1.998697E-01  1.000000E-16  1.000000E-16  1.000000E-16  0.000000E+00  1.000000E+00                                                                                                                                                                                                                                                                                                                                                                                                                                                                                                                                                                    
  8.000000E+02  1.250000E+02 -4.725000E+03  4.484484E+07  1.899740E+02  0.000000E+00  1.000000E+00  1.000000E+00  0.000000E+00  0.000000E+00  6.393815E+00  9.042001E+02  1.998697E-01  1.000000E-16  1.000000E-16  1.000000E-16  0.000000E+00  1.000000E+00                                                                                                                                                                                                                                                                                                                                                                                                                                                                                                                                                                    
  9.350000E+02  1.250000E+02 -4.725000E+03  4.484492E+07  1.899626E+02  0.000000E+00  1.000000E+00  1.000000E+00  0.000000E+00  0.000000E+00  6.392282E+00  9.042113E+02  1.998696E-01  1.000000E-16  1.000000E-16  1.000000E-16  0.000000E+00  1.000000E+00                                                                                                                                                                                                                                                                                                                                                                                                                                                                                                                                                                    
  1.185000E+03  1.250000E+02 -4.725000E+03  4.484518E+07  1.899459E+02  0.000000E+00  1.000000E+00  1.000000E+00  0.000000E+00  0.000000E+00  6.390034E+00  9.042277E+02  1.998697E-01  1.000000E-16  1.000000E-16  1.000000E-16  0.000000E+00  1.000000E+00                                                                                                                                                                                                                                                                                                                                                                                                                                                                                                                                                                    