Title="TOUGHREACT V3.30-OMP flowvector.tec: Liq & Gas Fluxes (kg/s/m^2), Pore Velocities (m/s), & Heat Fluxes (J/s/m2)"                                                                                                                                                                                                                                                                                                                                                                                                                                                                                                                                                                                                                                                                                                         
Variables= "X(m)"     "Y(m)"      "Z(m)"     "FluxLiq"   "FluxLiq_X"   "FluxLiq_Y"   "FluxLiq_Z"   "PorVelLiq"  "PorVelLiqX"  "PorVelLiqY"  "PorVelLiqZ"     "FluxGas"   "FluxGas_X"   "FluxGas_Y"   "FluxGas_Z"   "PorVelGas"  "PorVelGasX"  "PorVelGasY"  "PorVelGasZ"    "HeatFlux"  "HeatFlux_X"  "HeatFlux_Y"  "HeatFlux_Z"                                                                                                                                                                                                                                                                                                                                                                                                                                                                                                
Zone T= "3.00000000E+09 sec" I=     9 J=    10 K=    23 F=Point
  1.250000E+02  1.250000E+02 -5.425000E+03  9.459271E-07  2.785143E-08  2.447677E-10 -9.455169E-07  4.254232E-09  1.258651E-10  1.106136E-12 -4.252370E-09  0.000000E+00  0.000000E+00  0.000000E+00  0.000000E+00  0.000000E+00  0.000000E+00  0.000000E+00  0.000000E+00  6.364717E-01  1.941483E-02  1.706241E-04 -6.361755E-01                                                                                                                                                                                                                                                                                                                                                                                                                                                                                              
  3.750000E+02  1.250000E+02 -5.425000E+03  9.272069E-07  5.071551E-08  2.371447E-10 -9.258188E-07  4.170785E-09  2.292028E-10  1.071804E-12 -4.164482E-09  0.000000E+00  0.000000E+00  0.000000E+00  0.000000E+00  0.000000E+00  0.000000E+00  0.000000E+00  0.000000E+00  6.239208E-01  3.535302E-02  1.653098E-04 -6.229184E-01                                                                                                                                                                                                                                                                                                                                                                                                                                                                                              
  6.250000E+02  1.250000E+02 -5.425000E+03  9.096089E-07  1.378028E-08  5.191371E-10 -9.095043E-07  4.092141E-09  6.227938E-11  2.346515E-12 -4.091666E-09  0.000000E+00  0.000000E+00  0.000000E+00  0.000000E+00  0.000000E+00  0.000000E+00  0.000000E+00  0.000000E+00  6.120146E-01  9.605998E-03  3.618823E-04 -6.119391E-01                                                                                                                                                                                                                                                                                                                                                                                                                                                                                              
  7.600000E+02  1.250000E+02 -5.425000E+03  9.086492E-07 -2.083467E-08  9.294491E-10 -9.084098E-07  4.087762E-09 -9.417135E-11  4.201056E-12 -4.086675E-09  0.000000E+00  0.000000E+00  0.000000E+00  0.000000E+00  0.000000E+00  0.000000E+00  0.000000E+00  0.000000E+00  6.113730E-01 -1.452355E-02  6.479054E-04 -6.112001E-01                                                                                                                                                                                                                                                                                                                                                                                                                                                                                              
  7.800000E+02  1.250000E+02 -5.425000E+03  9.087394E-07 -2.616974E-08  9.924550E-10 -9.083620E-07  4.088159E-09 -1.182850E-10  4.485822E-12 -4.086445E-09  0.000000E+00  0.000000E+00  0.000000E+00  0.000000E+00  0.000000E+00  0.000000E+00  0.000000E+00  0.000000E+00  6.114405E-01 -1.824255E-02  6.918260E-04 -6.111679E-01                                                                                                                                                                                                                                                                                                                                                                                                                                                                                              
  8.000000E+02  1.250000E+02 -5.425000E+03  9.089770E-07 -3.149082E-08  1.057537E-09 -9.084307E-07  4.089216E-09 -1.423329E-10  4.779969E-12 -4.086735E-09  0.000000E+00  0.000000E+00  0.000000E+00  0.000000E+00  0.000000E+00  0.000000E+00  0.000000E+00  0.000000E+00  6.116093E-01 -2.195184E-02  7.371944E-04 -6.112147E-01                                                                                                                                                                                                                                                                                                                                                                                                                                                                                              
  9.350000E+02  1.250000E+02 -5.425000E+03  9.119821E-07 -6.470909E-08  1.509773E-09 -9.096822E-07  4.102644E-09 -2.924312E-10  6.823784E-12 -4.092203E-09  0.000000E+00  0.000000E+00  0.000000E+00  0.000000E+00  0.000000E+00  0.000000E+00  0.000000E+00  0.000000E+00  6.137236E-01 -4.510877E-02  1.052444E-03 -6.120627E-01                                                                                                                                                                                                                                                                                                                                                                                                                                                                                              
  1.185000E+03  1.250000E+02 -5.425000E+03  9.337873E-07 -9.168500E-08  2.457377E-09 -9.292721E-07  4.199805E-09 -4.142865E-10  1.110465E-11 -4.179307E-09  0.000000E+00  0.000000E+00  0.000000E+00  0.000000E+00  0.000000E+00  0.000000E+00  0.000000E+00  0.000000E+00  6.285218E-01 -6.391500E-02  1.713052E-03 -6.252612E-01                                                                                                                                                                                                                                                                                                                                                                                                                                                                                              
  1.435000E+03  1.250000E+02 -5.425000E+03  9.539345E-07 -4.404785E-08  2.956380E-09 -9.529125E-07  4.289234E-09 -1.990162E-10  1.335732E-11 -4.284593E-09  0.000000E+00  0.000000E+00  0.000000E+00  0.000000E+00  0.000000E+00  0.000000E+00  0.000000E+00  0.000000E+00  6.419304E-01 -3.070687E-02  2.060968E-03 -6.411922E-01                                                                                                                                                                                                                                                                                                                                                                                                                                                                                              
  1.250000E+02  1.250000E+02 -5.225000E+03  3.496671E-06  4.279972E-08  9.447623E-10 -3.496409E-06  1.556657E-08  1.920993E-10  4.240354E-12 -1.556538E-08  0.000000E+00  0.000000E+00  0.000000E+00  0.000000E+00  0.000000E+00  0.000000E+00  0.000000E+00  0.000000E+00  2.286570E+00  2.879709E-02  6.356678E-04 -2.286388E+00                                                                                                                                                                                                                                                                                                                                                                                                                                                                                              
  3.750000E+02  1.250000E+02 -5.225000E+03  3.407753E-06  7.805041E-08  7.533953E-10 -3.406859E-06  1.517596E-08  3.503431E-10  3.382031E-12 -1.517191E-08  0.000000E+00  0.000000E+00  0.000000E+00  0.000000E+00  0.000000E+00  0.000000E+00  0.000000E+00  0.000000E+00  2.226924E+00  5.251480E-02  5.069067E-04 -2.226305E+00                                                                                                                                                                                                                                                                                                                                                                                                                                                                                              
  6.250000E+02  1.250000E+02 -5.225000E+03  3.339479E-06  2.806623E-08  9.059370E-10 -3.339361E-06  1.487562E-08  1.259883E-10  4.067380E-12 -1.487508E-08  0.000000E+00  0.000000E+00  0.000000E+00  0.000000E+00  0.000000E+00  0.000000E+00  0.000000E+00  0.000000E+00  2.180864E+00  1.888384E-02  6.095389E-04 -2.180782E+00                                                                                                                                                                                                                                                                                                                                                                                                                                                                                              
  7.600000E+02  1.250000E+02 -5.225000E+03  3.332683E-06 -1.809571E-08  1.383734E-09 -3.332634E-06  1.484540E-08 -8.124271E-11  6.212440E-12 -1.484517E-08  0.000000E+00  0.000000E+00  0.000000E+00  0.000000E+00  0.000000E+00  0.000000E+00  0.000000E+00  0.000000E+00  2.176478E+00 -1.217523E-02  9.310097E-04 -2.176443E+00                                                                                                                                                                                                                                                                                                                                                                                                                                                                                              
  7.800000E+02  1.250000E+02 -5.225000E+03  3.332304E-06 -2.557070E-08  1.458748E-09 -3.332206E-06  1.484370E-08 -1.148020E-10  6.549201E-12 -1.484325E-08  0.000000E+00  0.000000E+00  0.000000E+00  0.000000E+00  0.000000E+00  0.000000E+00  0.000000E+00  0.000000E+00  2.176281E+00 -1.720459E-02  9.814808E-04 -2.176213E+00                                                                                                                                                                                                                                                                                                                                                                                                                                                                                              
  8.000000E+02  1.250000E+02 -5.225000E+03  3.332552E-06 -3.305761E-08  1.537877E-09 -3.332388E-06  1.484478E-08 -1.484118E-10  6.904425E-12 -1.484404E-08  0.000000E+00  0.000000E+00  0.000000E+00  0.000000E+00  0.000000E+00  0.000000E+00  0.000000E+00  0.000000E+00  2.176551E+00 -2.224210E-02  1.034722E-03 -2.176437E+00                                                                                                                                                                                                                                                                                                                                                                                                                                                                                              
  9.350000E+02  1.250000E+02 -5.225000E+03  3.338562E-06 -8.027879E-08  2.098469E-09 -3.337596E-06  1.487127E-08 -3.603398E-10  9.420880E-12 -1.486690E-08  0.000000E+00  0.000000E+00  0.000000E+00  0.000000E+00  0.000000E+00  0.000000E+00  0.000000E+00  0.000000E+00  2.181498E+00 -5.401528E-02  1.411915E-03 -2.180828E+00                                                                                                                                                                                                                                                                                                                                                                                                                                                                                              
  1.185000E+03  1.250000E+02 -5.225000E+03  3.420846E-06 -1.235269E-07  3.480211E-09 -3.418613E-06  1.523187E-08 -5.543653E-10  1.562020E-11 -1.522177E-08  0.000000E+00  0.000000E+00  0.000000E+00  0.000000E+00  0.000000E+00  0.000000E+00  0.000000E+00  0.000000E+00  2.236616E+00 -8.311672E-02  2.341662E-03 -2.235070E+00                                                                                                                                                                                                                                                                                                                                                                                                                                                                                              
  1.435000E+03  1.250000E+02 -5.225000E+03  3.526572E-06 -6.164624E-08  4.145766E-09 -3.526031E-06  1.569511E-08 -2.766224E-10  1.860283E-11 -1.569266E-08  0.000000E+00  0.000000E+00  0.000000E+00  0.000000E+00  0.000000E+00  0.000000E+00  0.000000E+00  0.000000E+00  2.306851E+00 -4.148030E-02  2.789588E-03 -2.306477E+00                                                                                                                                                                                                                                                                                                                                                                                                                                                                                              
  1.250000E+02  1.250000E+02 -4.975000E+03  6.802215E-06  1.092000E-07  3.515857E-09 -6.801337E-06  2.974611E-08  4.830344E-10  1.555244E-11 -2.974219E-08  0.000000E+00  0.000000E+00  0.000000E+00  0.000000E+00  0.000000E+00  0.000000E+00  0.000000E+00  0.000000E+00  4.260015E+00  7.064320E-02  2.274464E-03 -4.259429E+00                                                                                                                                                                                                                                                                                                                                                                                                                                                                                              
  3.750000E+02  1.250000E+02 -4.975000E+03  6.532548E-06  1.925312E-07  2.372700E-09 -6.529710E-06  2.857532E-08  8.517663E-10  1.049926E-11 -2.856262E-08  0.000000E+00  0.000000E+00  0.000000E+00  0.000000E+00  0.000000E+00  0.000000E+00  0.000000E+00  0.000000E+00  4.046917E+00  1.244965E-01  1.533371E-03 -4.045002E+00                                                                                                                                                                                                                                                                                                                                                                                                                                                                                              
  6.250000E+02  1.250000E+02 -4.975000E+03  6.376588E-06  8.701995E-08  1.757400E-09 -6.375994E-06  2.789474E-08  3.850587E-10  7.778444E-12 -2.789208E-08  0.000000E+00  0.000000E+00  0.000000E+00  0.000000E+00  0.000000E+00  0.000000E+00  0.000000E+00  0.000000E+00  3.918643E+00  5.623491E-02  1.134670E-03 -3.918240E+00                                                                                                                                                                                                                                                                                                                                                                                                                                                                                              
  7.600000E+02  1.250000E+02 -4.975000E+03  6.337752E-06 -1.140448E-09  2.290329E-09 -6.337751E-06  2.772767E-08 -5.047947E-12  1.013736E-11 -2.772767E-08  0.000000E+00  0.000000E+00  0.000000E+00  0.000000E+00  0.000000E+00  0.000000E+00  0.000000E+00  0.000000E+00  3.893824E+00 -7.365006E-04  1.478792E-03 -3.893823E+00                                                                                                                                                                                                                                                                                                                                                                                                                                                                                              
  7.800000E+02  1.250000E+02 -4.975000E+03  6.334026E-06 -1.840947E-08  2.388182E-09 -6.333999E-06  2.771198E-08 -8.148327E-11  1.057049E-11 -2.771185E-08  0.000000E+00  0.000000E+00  0.000000E+00  0.000000E+00  0.000000E+00  0.000000E+00  0.000000E+00  0.000000E+00  3.892159E+00 -1.188735E-02  1.542018E-03 -3.892141E+00                                                                                                                                                                                                                                                                                                                                                                                                                                                                                              
  8.000000E+02  1.250000E+02 -4.975000E+03  6.333931E-06 -3.593026E-08  2.506221E-09 -6.333829E-06  2.771247E-08 -1.590323E-10  1.109298E-11 -2.771201E-08  0.000000E+00  0.000000E+00  0.000000E+00  0.000000E+00  0.000000E+00  0.000000E+00  0.000000E+00  0.000000E+00  3.894077E+00 -2.321036E-02  1.618343E-03 -3.894007E+00                                                                                                                                                                                                                                                                                                                                                                                                                                                                                              
  9.350000E+02  1.250000E+02 -4.975000E+03  6.354168E-06 -1.419513E-07  3.437844E-09 -6.352581E-06  2.780855E-08 -6.280886E-10  1.521684E-11 -2.780145E-08  0.000000E+00  0.000000E+00  0.000000E+00  0.000000E+00  0.000000E+00  0.000000E+00  0.000000E+00  0.000000E+00  3.926763E+00 -9.178504E-02  2.221320E-03 -3.925689E+00                                                                                                                                                                                                                                                                                                                                                                                                                                                                                              
  1.185000E+03  1.250000E+02 -4.975000E+03  6.550420E-06 -2.616346E-07  7.086494E-09 -6.545189E-06  2.865933E-08 -1.157265E-09  3.135396E-11 -2.863594E-08  0.000000E+00  0.000000E+00  0.000000E+00  0.000000E+00  0.000000E+00  0.000000E+00  0.000000E+00  0.000000E+00  4.081419E+00 -1.692658E-01  4.582700E-03 -4.077905E+00                                                                                                                                                                                                                                                                                                                                                                                                                                                                                              
  1.435000E+03  1.250000E+02 -4.975000E+03  6.874827E-06 -1.420333E-07  8.510095E-09 -6.873354E-06  3.005788E-08 -6.281002E-10  3.763352E-11 -3.005129E-08  0.000000E+00  0.000000E+00  0.000000E+00  0.000000E+00  0.000000E+00  0.000000E+00  0.000000E+00  0.000000E+00  4.322503E+00 -9.192186E-02  5.507609E-03 -4.321522E+00                                                                                                                                                                                                                                                                                                                                                                                                                                                                                              
  1.250000E+02  1.250000E+02 -4.725000E+03  1.041437E-05  2.332877E-07  7.163387E-09 -1.041175E-05  4.434476E-08  1.006834E-09  3.094272E-11 -4.433332E-08  0.000000E+00  0.000000E+00  0.000000E+00  0.000000E+00  0.000000E+00  0.000000E+00  0.000000E+00  0.000000E+00  5.535239E+00  1.432081E-01  4.397380E-03 -5.533384E+00                                                                                                                                                                                                                                                                                                                                                                                                                                                                                              
  3.750000E+02  1.250000E+02 -4.725000E+03  9.694607E-06  3.620823E-07  3.469186E-09 -9.687842E-06  4.118482E-08  1.562384E-09  1.497349E-11 -4.115517E-08  0.000000E+00  0.000000E+00  0.000000E+00  0.000000E+00  0.000000E+00  0.000000E+00  0.000000E+00  0.000000E+00  4.803984E+00  2.208797E-01  2.092148E-03 -4.798903E+00                                                                                                                                                                                                                                                                                                                                                                                                                                                                                              
  6.250000E+02  1.250000E+02 -4.725000E+03  9.526813E-06  1.888514E-07  8.855973E-10 -9.524941E-06  4.042824E-08  8.145760E-10  3.819669E-12 -4.042003E-08  0.000000E+00  0.000000E+00  0.000000E+00  0.000000E+00  0.000000E+00  0.000000E+00  0.000000E+00  0.000000E+00  4.601029E+00  1.134274E-01  5.272547E-04 -4.599631E+00                                                                                                                                                                                                                                                                                                                                                                                                                                                                                              
  7.600000E+02  1.250000E+02 -4.725000E+03  9.401790E-06  1.097599E-07 -1.429802E-09 -9.401149E-06  3.989031E-08  4.734228E-10 -6.167358E-12 -3.988750E-08  0.000000E+00  0.000000E+00  0.000000E+00  0.000000E+00  0.000000E+00  0.000000E+00  0.000000E+00  0.000000E+00  4.497227E+00  6.532952E-02 -8.506174E-04 -4.496752E+00                                                                                                                                                                                                                                                                                                                                                                                                                                                                                              
  7.800000E+02  1.250000E+02 -4.725000E+03  9.301281E-06  8.150623E-08 -1.695028E-09 -9.300924E-06  3.946212E-08  3.515906E-10 -7.311680E-12 -3.946056E-08  0.000000E+00  0.000000E+00  0.000000E+00  0.000000E+00  0.000000E+00  0.000000E+00  0.000000E+00  0.000000E+00  4.423179E+00  4.850111E-02 -1.008624E-03 -4.422913E+00                                                                                                                                                                                                                                                                                                                                                                                                                                                                                              
  8.000000E+02  1.250000E+02 -4.725000E+03  9.298462E-06  4.554376E-08 -1.773085E-09 -9.298350E-06  3.945166E-08  1.964976E-10 -7.649071E-12 -3.945117E-08  0.000000E+00  0.000000E+00  0.000000E+00  0.000000E+00  0.000000E+00  0.000000E+00  0.000000E+00  0.000000E+00  4.422083E+00  2.711151E-02 -1.055881E-03 -4.421999E+00                                                                                                                                                                                                                                                                                                                                                                                                                                                                                              
  9.350000E+02  1.250000E+02 -4.725000E+03  9.349103E-06 -1.779732E-07 -9.900836E-10 -9.347409E-06  3.968576E-08 -7.683485E-10 -4.274860E-12 -3.967832E-08  0.000000E+00  0.000000E+00  0.000000E+00  0.000000E+00  0.000000E+00  0.000000E+00  0.000000E+00  0.000000E+00  4.474269E+00 -1.084790E-01 -5.943323E-04 -4.472954E+00                                                                                                                                                                                                                                                                                                                                                                                                                                                                                              
  1.185000E+03  1.250000E+02 -4.725000E+03  9.685034E-06 -5.121939E-07  1.055453E-08 -9.671475E-06  4.116531E-08 -2.211321E-09  4.559315E-11 -4.110585E-08  0.000000E+00  0.000000E+00  0.000000E+00  0.000000E+00  0.000000E+00  0.000000E+00  0.000000E+00  0.000000E+00  4.825349E+00 -3.146224E-01  6.422722E-03 -4.815077E+00                                                                                                                                                                                                                                                                                                                                                                                                                                                                                              