Title="TOUGHREACT V3.30-OMP flowvector.tec: Liq & Gas Fluxes (kg/s/m^2), Pore Velocities (m/s), & Heat Fluxes (J/s/m2)"                                                                                                                                                                                                                                                                                                                                                                                                                                                                                                                                                                                                                                                                                                         
Variables= "X(m)"     "Y(m)"      "Z(m)"     "FluxLiq"   "FluxLiq_X"   "FluxLiq_Y"   "FluxLiq_Z"   "PorVelLiq"  "PorVelLiqX"  "PorVelLiqY"  "PorVelLiqZ"     "FluxGas"   "FluxGas_X"   "FluxGas_Y"   "FluxGas_Z"   "PorVelGas"  "PorVelGasX"  "PorVelGasY"  "PorVelGasZ"    "HeatFlux"  "HeatFlux_X"  "HeatFlux_Y"  "HeatFlux_Z"                                                                                                                                                                                                                                                                                                                                                                                                                                                                                                
Zone T= "6.70000000E+09 sec" I=     9 J=    10 K=    23 F=Point
  1.250000E+02  1.250000E+02 -5.425000E+03  9.484698E-07  2.036570E-08 -4.029463E-09 -9.482425E-07  3.527972E-09  7.613195E-11 -1.506278E-11 -3.527118E-09  0.000000E+00  0.000000E+00  0.000000E+00  0.000000E+00  0.000000E+00  0.000000E+00  0.000000E+00  0.000000E+00  6.839378E-01  1.526320E-02 -3.019933E-03 -6.837608E-01                                                                                                                                                                                                                                                                                                                                                                                                                                                                                              
  3.750000E+02  1.250000E+02 -5.425000E+03  9.324405E-07  3.398423E-08 -4.097529E-09 -9.318120E-07  3.468801E-09  1.270457E-10 -1.531853E-11 -3.466440E-09  0.000000E+00  0.000000E+00  0.000000E+00  0.000000E+00  0.000000E+00  0.000000E+00  0.000000E+00  0.000000E+00  6.723241E-01  2.547013E-02 -3.071072E-03 -6.718345E-01                                                                                                                                                                                                                                                                                                                                                                                                                                                                                              
  6.250000E+02  1.250000E+02 -5.425000E+03  9.193555E-07 -2.197386E-10 -4.172904E-09 -9.193460E-07  3.420407E-09 -8.228205E-13 -1.560124E-11 -3.420371E-09  0.000000E+00  0.000000E+00  0.000000E+00  0.000000E+00  0.000000E+00  0.000000E+00  0.000000E+00  0.000000E+00  6.628024E-01 -1.651389E-04 -3.127687E-03 -6.627950E-01                                                                                                                                                                                                                                                                                                                                                                                                                                                                                              
  7.600000E+02  1.250000E+02 -5.425000E+03  9.214935E-07 -2.967296E-08 -4.191526E-09 -9.210061E-07  3.428262E-09 -1.109365E-10 -1.567040E-11 -3.426431E-09  0.000000E+00  0.000000E+00  0.000000E+00  0.000000E+00  0.000000E+00  0.000000E+00  0.000000E+00  0.000000E+00  6.643728E-01 -2.224048E-02 -3.141659E-03 -6.639930E-01                                                                                                                                                                                                                                                                                                                                                                                                                                                                                              
  7.800000E+02  1.250000E+02 -5.425000E+03  9.219744E-07 -3.362308E-08 -4.194119E-09 -9.213516E-07  3.430036E-09 -1.257039E-10 -1.568002E-11 -3.427696E-09  0.000000E+00  0.000000E+00  0.000000E+00  0.000000E+00  0.000000E+00  0.000000E+00  0.000000E+00  0.000000E+00  6.647297E-01 -2.520119E-02 -3.143604E-03 -6.642444E-01                                                                                                                                                                                                                                                                                                                                                                                                                                                                                              
  8.000000E+02  1.250000E+02 -5.425000E+03  9.225696E-07 -3.747442E-08 -4.196563E-09 -9.217986E-07  3.432235E-09 -1.400993E-10 -1.568907E-11 -3.429338E-09  0.000000E+00  0.000000E+00  0.000000E+00  0.000000E+00  0.000000E+00  0.000000E+00  0.000000E+00  0.000000E+00  6.651752E-01 -2.808790E-02 -3.145438E-03 -6.645744E-01                                                                                                                                                                                                                                                                                                                                                                                                                                                                                              
  9.350000E+02  1.250000E+02 -5.425000E+03  9.272301E-07 -5.732767E-08 -4.212160E-09 -9.254467E-07  3.449448E-09 -2.142974E-10 -1.574672E-11 -3.442749E-09  0.000000E+00  0.000000E+00  0.000000E+00  0.000000E+00  0.000000E+00  0.000000E+00  0.000000E+00  0.000000E+00  6.686610E-01 -4.296796E-02 -3.157139E-03 -6.672716E-01                                                                                                                                                                                                                                                                                                                                                                                                                                                                                              
  1.185000E+03  1.250000E+02 -5.425000E+03  9.429138E-07 -6.921061E-08 -4.242650E-09 -9.403607E-07  3.507159E-09 -2.586893E-10 -1.585832E-11 -3.497570E-09  0.000000E+00  0.000000E+00  0.000000E+00  0.000000E+00  0.000000E+00  0.000000E+00  0.000000E+00  0.000000E+00  6.800800E-01 -5.187353E-02 -3.179944E-03 -6.780913E-01                                                                                                                                                                                                                                                                                                                                                                                                                                                                                              
  1.435000E+03  1.250000E+02 -5.425000E+03  9.565456E-07 -3.156897E-08 -4.273586E-09 -9.560150E-07  3.557191E-09 -1.179874E-10 -1.597190E-11 -3.555198E-09  0.000000E+00  0.000000E+00  0.000000E+00  0.000000E+00  0.000000E+00  0.000000E+00  0.000000E+00  0.000000E+00  6.898644E-01 -2.366071E-02 -3.203052E-03 -6.894511E-01                                                                                                                                                                                                                                                                                                                                                                                                                                                                                              
  1.250000E+02  1.250000E+02 -5.225000E+03  3.505466E-06  3.279481E-08 -3.524288E-09 -3.505311E-06  1.290080E-08  1.217064E-10 -1.307896E-11 -1.290022E-08  0.000000E+00  0.000000E+00  0.000000E+00  0.000000E+00  0.000000E+00  0.000000E+00  0.000000E+00  0.000000E+00  2.446953E+00  2.364775E-02 -2.541314E-03 -2.446837E+00                                                                                                                                                                                                                                                                                                                                                                                                                                                                                              
  3.750000E+02  1.250000E+02 -5.225000E+03  3.430236E-06  5.590884E-08 -3.640864E-09 -3.429778E-06  1.262597E-08  2.074962E-10 -1.351319E-11 -1.262425E-08  0.000000E+00  0.000000E+00  0.000000E+00  0.000000E+00  0.000000E+00  0.000000E+00  0.000000E+00  0.000000E+00  2.388787E+00  4.031292E-02 -2.625074E-03 -2.388445E+00                                                                                                                                                                                                                                                                                                                                                                                                                                                                                              
  6.250000E+02  1.250000E+02 -5.225000E+03  3.375535E-06  7.272005E-09 -3.753833E-09 -3.375525E-06  1.242604E-08  2.698771E-11 -1.393365E-11 -1.242600E-08  0.000000E+00  0.000000E+00  0.000000E+00  0.000000E+00  0.000000E+00  0.000000E+00  0.000000E+00  0.000000E+00  2.346912E+00  5.243969E-03 -2.706319E-03 -2.346904E+00                                                                                                                                                                                                                                                                                                                                                                                                                                                                                              
  7.600000E+02  1.250000E+02 -5.225000E+03  3.382039E-06 -3.458573E-08 -3.761639E-09 -3.381860E-06  1.244937E-08 -1.283740E-10 -1.396215E-11 -1.244870E-08  0.000000E+00  0.000000E+00  0.000000E+00  0.000000E+00  0.000000E+00  0.000000E+00  0.000000E+00  0.000000E+00  2.351383E+00 -2.493439E-02 -2.711951E-03 -2.351249E+00                                                                                                                                                                                                                                                                                                                                                                                                                                                                                              
  7.800000E+02  1.250000E+02 -5.225000E+03  3.383555E-06 -4.033203E-08 -3.762338E-09 -3.383313E-06  1.245486E-08 -1.497019E-10 -1.396466E-11 -1.245396E-08  0.000000E+00  0.000000E+00  0.000000E+00  0.000000E+00  0.000000E+00  0.000000E+00  0.000000E+00  0.000000E+00  2.352508E+00 -2.907738E-02 -2.712464E-03 -2.352327E+00                                                                                                                                                                                                                                                                                                                                                                                                                                                                                              
  8.000000E+02  1.250000E+02 -5.225000E+03  3.385785E-06 -4.592319E-08 -3.762585E-09 -3.385472E-06  1.246302E-08 -1.704504E-10 -1.396550E-11 -1.246185E-08  0.000000E+00  0.000000E+00  0.000000E+00  0.000000E+00  0.000000E+00  0.000000E+00  0.000000E+00  0.000000E+00  2.354341E+00 -3.311027E-02 -2.712674E-03 -2.354107E+00                                                                                                                                                                                                                                                                                                                                                                                                                                                                                              
  9.350000E+02  1.250000E+02 -5.225000E+03  3.404184E-06 -7.262943E-08 -3.761537E-09 -3.403407E-06  1.253044E-08 -2.695376E-10 -1.396103E-11 -1.252753E-08  0.000000E+00  0.000000E+00  0.000000E+00  0.000000E+00  0.000000E+00  0.000000E+00  0.000000E+00  0.000000E+00  2.369623E+00 -5.237115E-02 -2.712188E-03 -2.369042E+00                                                                                                                                                                                                                                                                                                                                                                                                                                                                                              
  1.185000E+03  1.250000E+02 -5.225000E+03  3.464567E-06 -9.131001E-08 -3.761441E-09 -3.463362E-06  1.274991E-08 -3.388176E-10 -1.395810E-11 -1.274540E-08  0.000000E+00  0.000000E+00  0.000000E+00  0.000000E+00  0.000000E+00  0.000000E+00  0.000000E+00  0.000000E+00  2.415633E+00 -6.584659E-02 -2.712380E-03 -2.414734E+00                                                                                                                                                                                                                                                                                                                                                                                                                                                                                              
  1.435000E+03  1.250000E+02 -5.225000E+03  3.533173E-06 -4.301543E-08 -3.779790E-09 -3.532910E-06  1.299976E-08 -1.596004E-10 -1.402390E-11 -1.299877E-08  0.000000E+00  0.000000E+00  0.000000E+00  0.000000E+00  0.000000E+00  0.000000E+00  0.000000E+00  0.000000E+00  2.468690E+00 -3.102152E-02 -2.725893E-03 -2.468493E+00                                                                                                                                                                                                                                                                                                                                                                                                                                                                                              
  1.250000E+02  1.250000E+02 -4.975000E+03  6.809832E-06  8.283294E-08 -2.250460E-09 -6.809328E-06  2.455538E-08  3.026926E-10 -8.225083E-12 -2.455351E-08  0.000000E+00  0.000000E+00  0.000000E+00  0.000000E+00  0.000000E+00  0.000000E+00  0.000000E+00  0.000000E+00  4.413211E+00  5.711259E-02 -1.551563E-03 -4.412841E+00                                                                                                                                                                                                                                                                                                                                                                                                                                                                                              
  3.750000E+02  1.250000E+02 -4.975000E+03  6.587258E-06  1.416094E-07 -2.514736E-09 -6.585735E-06  2.374827E-08  5.174831E-10 -9.190725E-12 -2.374263E-08  0.000000E+00  0.000000E+00  0.000000E+00  0.000000E+00  0.000000E+00  0.000000E+00  0.000000E+00  0.000000E+00  4.208302E+00  9.750396E-02 -1.728081E-03 -4.207172E+00                                                                                                                                                                                                                                                                                                                                                                                                                                                                                              
  6.250000E+02  1.250000E+02 -4.975000E+03  6.444126E-06  3.475701E-08 -2.743973E-09 -6.444032E-06  2.323018E-08  1.270097E-10 -1.002849E-11 -2.322983E-08  0.000000E+00  0.000000E+00  0.000000E+00  0.000000E+00  0.000000E+00  0.000000E+00  0.000000E+00  0.000000E+00  4.081123E+00  2.392272E-02 -1.881444E-03 -4.081052E+00                                                                                                                                                                                                                                                                                                                                                                                                                                                                                              
  7.600000E+02  1.250000E+02 -4.975000E+03  6.453986E-06 -5.467927E-08 -2.749888E-09 -6.453754E-06  2.326380E-08 -1.998281E-10 -1.004950E-11 -2.326294E-08  0.000000E+00  0.000000E+00  0.000000E+00  0.000000E+00  0.000000E+00  0.000000E+00  0.000000E+00  0.000000E+00  4.086396E+00 -3.749105E-02 -1.885414E-03 -4.086223E+00                                                                                                                                                                                                                                                                                                                                                                                                                                                                                              
  7.800000E+02  1.250000E+02 -4.975000E+03  6.457304E-06 -6.788771E-08 -2.749581E-09 -6.456946E-06  2.327556E-08 -2.480973E-10 -1.004832E-11 -2.327423E-08  0.000000E+00  0.000000E+00  0.000000E+00  0.000000E+00  0.000000E+00  0.000000E+00  0.000000E+00  0.000000E+00  4.088893E+00 -4.655245E-02 -1.885280E-03 -4.088628E+00                                                                                                                                                                                                                                                                                                                                                                                                                                                                                              
  8.000000E+02  1.250000E+02 -4.975000E+03  6.464756E-06 -8.071101E-08 -2.747967E-09 -6.464251E-06  2.330265E-08 -2.949592E-10 -1.004248E-11 -2.330078E-08  0.000000E+00  0.000000E+00  0.000000E+00  0.000000E+00  0.000000E+00  0.000000E+00  0.000000E+00  0.000000E+00  4.095822E+00 -5.539264E-02 -1.884473E-03 -4.095447E+00                                                                                                                                                                                                                                                                                                                                                                                                                                                                                              
  9.350000E+02  1.250000E+02 -4.975000E+03  6.529526E-06 -1.296116E-07 -2.729321E-09 -6.528239E-06  2.353855E-08 -4.736215E-10 -9.974955E-12 -2.353379E-08  0.000000E+00  0.000000E+00  0.000000E+00  0.000000E+00  0.000000E+00  0.000000E+00  0.000000E+00  0.000000E+00  4.157149E+00 -8.914687E-02 -1.874322E-03 -4.156193E+00                                                                                                                                                                                                                                                                                                                                                                                                                                                                                              
  1.185000E+03  1.250000E+02 -4.975000E+03  6.661496E-06 -1.743429E-07 -2.707062E-09 -6.659213E-06  2.401532E-08 -6.370232E-10 -9.892525E-12 -2.400687E-08  0.000000E+00  0.000000E+00  0.000000E+00  0.000000E+00  0.000000E+00  0.000000E+00  0.000000E+00  0.000000E+00  4.278423E+00 -1.201860E-01 -1.863193E-03 -4.276734E+00                                                                                                                                                                                                                                                                                                                                                                                                                                                                                              
  1.435000E+03  1.250000E+02 -4.975000E+03  6.856354E-06 -8.821452E-08 -2.702818E-09 -6.855786E-06  2.472261E-08 -3.223108E-10 -9.876695E-12 -2.472051E-08  0.000000E+00  0.000000E+00  0.000000E+00  0.000000E+00  0.000000E+00  0.000000E+00  0.000000E+00  0.000000E+00  4.464104E+00 -6.090174E-02 -1.865821E-03 -4.463689E+00                                                                                                                                                                                                                                                                                                                                                                                                                                                                                              
  1.250000E+02  1.250000E+02 -4.725000E+03  1.036006E-05  1.408791E-07 -1.605083E-09 -1.035910E-05  3.619295E-08  4.992434E-10 -5.694004E-12 -3.618951E-08  0.000000E+00  0.000000E+00  0.000000E+00  0.000000E+00  0.000000E+00  0.000000E+00  0.000000E+00  0.000000E+00  5.412534E+00  8.778781E-02 -9.997791E-04 -5.411822E+00                                                                                                                                                                                                                                                                                                                                                                                                                                                                                              
  3.750000E+02  1.250000E+02 -4.725000E+03  9.847096E-06  2.348217E-07 -1.517683E-09 -9.844295E-06  3.434099E-08  8.318160E-10 -5.376126E-12 -3.433091E-08  0.000000E+00  0.000000E+00  0.000000E+00  0.000000E+00  0.000000E+00  0.000000E+00  0.000000E+00  0.000000E+00  4.913307E+00  1.450243E-01 -9.244949E-04 -4.911166E+00                                                                                                                                                                                                                                                                                                                                                                                                                                                                                              
  6.250000E+02  1.250000E+02 -4.725000E+03  9.563553E-06  5.993676E-08 -1.399807E-09 -9.563366E-06  3.331951E-08  2.122190E-10 -4.954682E-12 -3.331883E-08  0.000000E+00  0.000000E+00  0.000000E+00  0.000000E+00  0.000000E+00  0.000000E+00  0.000000E+00  0.000000E+00  4.645157E+00  3.680555E-02 -8.413525E-04 -4.645012E+00                                                                                                                                                                                                                                                                                                                                                                                                                                                                                              
  7.600000E+02  1.250000E+02 -4.725000E+03  9.552354E-06 -7.998242E-08 -1.615304E-09 -9.552019E-06  3.328024E-08 -2.830687E-10 -5.716700E-12 -3.327904E-08  0.000000E+00  0.000000E+00  0.000000E+00  0.000000E+00  0.000000E+00  0.000000E+00  0.000000E+00  0.000000E+00  4.642543E+00 -4.805784E-02 -9.704371E-04 -4.642294E+00                                                                                                                                                                                                                                                                                                                                                                                                                                                                                              
  7.800000E+02  1.250000E+02 -4.725000E+03  9.557714E-06 -1.038472E-07 -1.653005E-09 -9.557150E-06  3.329937E-08 -3.675278E-10 -5.850097E-12 -3.329734E-08  0.000000E+00  0.000000E+00  0.000000E+00  0.000000E+00  0.000000E+00  0.000000E+00  0.000000E+00  0.000000E+00  4.647930E+00 -6.242976E-02 -9.932288E-04 -4.647510E+00                                                                                                                                                                                                                                                                                                                                                                                                                                                                                              
  8.000000E+02  1.250000E+02 -4.725000E+03  9.568402E-06 -1.276877E-07 -1.698292E-09 -9.567549E-06  3.333853E-08 -4.519555E-10 -6.010682E-12 -3.333547E-08  0.000000E+00  0.000000E+00  0.000000E+00  0.000000E+00  0.000000E+00  0.000000E+00  0.000000E+00  0.000000E+00  4.658878E+00 -7.711128E-02 -1.021273E-03 -4.658240E+00                                                                                                                                                                                                                                                                                                                                                                                                                                                                                              
  9.350000E+02  1.250000E+02 -4.725000E+03  9.782714E-06 -1.747920E-07 -2.057206E-09 -9.781152E-06  3.410367E-08 -6.189146E-10 -7.284655E-12 -3.409805E-08  0.000000E+00  0.000000E+00  0.000000E+00  0.000000E+00  0.000000E+00  0.000000E+00  0.000000E+00  0.000000E+00  4.844270E+00 -1.067745E-01 -1.246395E-03 -4.843093E+00                                                                                                                                                                                                                                                                                                                                                                                                                                                                                              
  1.185000E+03  1.250000E+02 -4.725000E+03  9.969021E-06 -2.330847E-07 -2.829603E-09 -9.966295E-06  3.478613E-08 -8.259461E-10 -1.002702E-11 -3.477632E-08  0.000000E+00  0.000000E+00  0.000000E+00  0.000000E+00  0.000000E+00  0.000000E+00  0.000000E+00  0.000000E+00  5.052575E+00 -1.448443E-01 -1.737004E-03 -5.050498E+00                                                                                                                                                                                                                                                                                                                                                                                                                                                                                              