Title="TOUGHREACT V3.30-OMP flowvector.tec: Liq & Gas Fluxes (kg/s/m^2), Pore Velocities (m/s), & Heat Fluxes (J/s/m2)"                                                                                                                                                                                                                                                                                                                                                                                                                                                                                                                                                                                                                                                                                                         
Variables= "X(m)"     "Y(m)"      "Z(m)"     "FluxLiq"   "FluxLiq_X"   "FluxLiq_Y"   "FluxLiq_Z"   "PorVelLiq"  "PorVelLiqX"  "PorVelLiqY"  "PorVelLiqZ"     "FluxGas"   "FluxGas_X"   "FluxGas_Y"   "FluxGas_Z"   "PorVelGas"  "PorVelGasX"  "PorVelGasY"  "PorVelGasZ"    "HeatFlux"  "HeatFlux_X"  "HeatFlux_Y"  "HeatFlux_Z"                                                                                                                                                                                                                                                                                                                                                                                                                                                                                                
Zone T= "1.33000000E+10 sec" I=     9 J=    10 K=    23 F=Point
  1.250000E+02  1.250000E+02 -5.425000E+03  9.376167E-07  2.434946E-08 -4.008200E-09 -9.372919E-07  2.668234E-09  6.966781E-11 -1.146782E-11 -2.667300E-09  0.000000E+00  0.000000E+00  0.000000E+00  0.000000E+00  0.000000E+00  0.000000E+00  0.000000E+00  0.000000E+00  7.474450E-01  2.031420E-02 -3.343983E-03 -7.471614E-01                                                                                                                                                                                                                                                                                                                                                                                                                                                                                              
  3.750000E+02  1.250000E+02 -5.425000E+03  9.155274E-07  3.603785E-08 -4.175152E-09 -9.148083E-07  2.605735E-09  1.031137E-10 -1.194676E-11 -2.603667E-09  0.000000E+00  0.000000E+00  0.000000E+00  0.000000E+00  0.000000E+00  0.000000E+00  0.000000E+00  0.000000E+00  7.294313E-01  3.006632E-02 -3.483541E-03 -7.288030E-01                                                                                                                                                                                                                                                                                                                                                                                                                                                                                              
  6.250000E+02  1.250000E+02 -5.425000E+03  8.984101E-07 -1.653024E-08 -4.412837E-09 -8.982471E-07  2.557213E-09 -4.730004E-11 -1.262759E-11 -2.556744E-09  0.000000E+00  0.000000E+00  0.000000E+00  0.000000E+00  0.000000E+00  0.000000E+00  0.000000E+00  0.000000E+00  7.155214E-01 -1.379386E-02 -3.682146E-03 -7.153789E-01                                                                                                                                                                                                                                                                                                                                                                                                                                                                                              
  7.600000E+02  1.250000E+02 -5.425000E+03  9.028121E-07 -5.929197E-08 -4.525682E-09 -9.008517E-07  2.569619E-09 -1.696594E-10 -1.294972E-11 -2.563979E-09  0.000000E+00  0.000000E+00  0.000000E+00  0.000000E+00  0.000000E+00  0.000000E+00  0.000000E+00  0.000000E+00  7.191529E-01 -4.947401E-02 -3.776328E-03 -7.174391E-01                                                                                                                                                                                                                                                                                                                                                                                                                                                                                              
  7.800000E+02  1.250000E+02 -5.425000E+03  9.037266E-07 -6.493266E-08 -4.542189E-09 -9.013794E-07  2.572205E-09 -1.857976E-10 -1.299682E-11 -2.565453E-09  0.000000E+00  0.000000E+00  0.000000E+00  0.000000E+00  0.000000E+00  0.000000E+00  0.000000E+00  0.000000E+00  7.199164E-01 -5.418078E-02 -3.790105E-03 -7.178647E-01                                                                                                                                                                                                                                                                                                                                                                                                                                                                                              
  8.000000E+02  1.250000E+02 -5.425000E+03  9.048226E-07 -7.041447E-08 -4.558487E-09 -9.020671E-07  2.575311E-09 -2.014746E-10 -1.304332E-11 -2.567385E-09  0.000000E+00  0.000000E+00  0.000000E+00  0.000000E+00  0.000000E+00  0.000000E+00  0.000000E+00  0.000000E+00  7.208534E-01 -5.875542E-02 -3.803715E-03 -7.184448E-01                                                                                                                                                                                                                                                                                                                                                                                                                                                                                              
  9.350000E+02  1.250000E+02 -5.425000E+03  9.128099E-07 -9.784861E-08 -4.667063E-09 -9.075383E-07  2.597920E-09 -2.799201E-10 -1.335297E-11 -2.582761E-09  0.000000E+00  0.000000E+00  0.000000E+00  0.000000E+00  0.000000E+00  0.000000E+00  0.000000E+00  0.000000E+00  7.276187E-01 -8.164600E-02 -3.894374E-03 -7.230130E-01                                                                                                                                                                                                                                                                                                                                                                                                                                                                                              
  1.185000E+03  1.250000E+02 -5.425000E+03  9.363636E-07 -1.109848E-07 -4.842119E-09 -9.297504E-07  2.664222E-09 -3.174424E-10 -1.385038E-11 -2.645207E-09  0.000000E+00  0.000000E+00  0.000000E+00  0.000000E+00  0.000000E+00  0.000000E+00  0.000000E+00  0.000000E+00  7.467702E-01 -9.260414E-02 -4.040315E-03 -7.409952E-01                                                                                                                                                                                                                                                                                                                                                                                                                                                                                              
  1.435000E+03  1.250000E+02 -5.425000E+03  9.542521E-07 -4.969132E-08 -4.961555E-09 -9.529445E-07  2.714322E-09 -1.421127E-10 -1.418913E-11 -2.710562E-09  0.000000E+00  0.000000E+00  0.000000E+00  0.000000E+00  0.000000E+00  0.000000E+00  0.000000E+00  0.000000E+00  7.610830E-01 -4.146082E-02 -4.139807E-03 -7.599416E-01                                                                                                                                                                                                                                                                                                                                                                                                                                                                                              
  1.250000E+02  1.250000E+02 -5.225000E+03  3.475206E-06  4.110373E-08 -3.467367E-09 -3.474961E-06  9.770089E-09  1.166313E-10 -9.838763E-12 -9.769388E-09  0.000000E+00  0.000000E+00  0.000000E+00  0.000000E+00  0.000000E+00  0.000000E+00  0.000000E+00  0.000000E+00  2.638835E+00  3.276580E-02 -2.763994E-03 -2.638630E+00                                                                                                                                                                                                                                                                                                                                                                                                                                                                                              
  3.750000E+02  1.250000E+02 -5.225000E+03  3.372623E-06  6.543571E-08 -3.683777E-09 -3.371986E-06  9.482821E-09  1.856805E-10 -1.045381E-11 -9.480997E-09  0.000000E+00  0.000000E+00  0.000000E+00  0.000000E+00  0.000000E+00  0.000000E+00  0.000000E+00  0.000000E+00  2.549704E+00  5.215044E-02 -2.934779E-03 -2.549169E+00                                                                                                                                                                                                                                                                                                                                                                                                                                                                                              
  6.250000E+02  1.250000E+02 -5.225000E+03  3.300054E-06 -6.682860E-09 -3.965643E-09 -3.300045E-06  9.279676E-09 -1.896533E-11 -1.125435E-11 -9.279650E-09  0.000000E+00  0.000000E+00  0.000000E+00  0.000000E+00  0.000000E+00  0.000000E+00  0.000000E+00  0.000000E+00  2.488436E+00 -5.315619E-03 -3.158341E-03 -2.488428E+00                                                                                                                                                                                                                                                                                                                                                                                                                                                                                              
  7.600000E+02  1.250000E+02 -5.225000E+03  3.310297E-06 -6.612165E-08 -4.071010E-09 -3.309634E-06  9.307622E-09 -1.876396E-10 -1.155254E-11 -9.305724E-09  0.000000E+00  0.000000E+00  0.000000E+00  0.000000E+00  0.000000E+00  0.000000E+00  0.000000E+00  0.000000E+00  2.496035E+00 -5.265955E-02 -3.242190E-03 -2.495477E+00                                                                                                                                                                                                                                                                                                                                                                                                                                                                                              
  7.800000E+02  1.250000E+02 -5.225000E+03  3.312609E-06 -7.422053E-08 -4.086121E-09 -3.311775E-06  9.314008E-09 -2.106198E-10 -1.159530E-11 -9.311619E-09  0.000000E+00  0.000000E+00  0.000000E+00  0.000000E+00  0.000000E+00  0.000000E+00  0.000000E+00  0.000000E+00  2.497905E+00 -5.911114E-02 -3.254249E-03 -2.497203E+00                                                                                                                                                                                                                                                                                                                                                                                                                                                                                              
  8.000000E+02  1.250000E+02 -5.225000E+03  3.316157E-06 -8.207423E-08 -4.100797E-09 -3.315138E-06  9.323959E-09 -2.328972E-10 -1.163686E-11 -9.321042E-09  0.000000E+00  0.000000E+00  0.000000E+00  0.000000E+00  0.000000E+00  0.000000E+00  0.000000E+00  0.000000E+00  2.501224E+00 -6.537740E-02 -3.266081E-03 -2.500368E+00                                                                                                                                                                                                                                                                                                                                                                                                                                                                                              
  9.350000E+02  1.250000E+02 -5.225000E+03  3.342755E-06 -1.195033E-07 -4.196617E-09 -3.340616E-06  9.398352E-09 -3.390400E-10 -1.190806E-11 -9.392227E-09  0.000000E+00  0.000000E+00  0.000000E+00  0.000000E+00  0.000000E+00  0.000000E+00  0.000000E+00  0.000000E+00  2.525283E+00 -9.522884E-02 -3.343353E-03 -2.523485E+00                                                                                                                                                                                                                                                                                                                                                                                                                                                                                              
  1.185000E+03  1.250000E+02 -5.225000E+03  3.432671E-06 -1.426021E-07 -4.350611E-09 -3.429705E-06  9.648056E-09 -4.044956E-10 -1.234173E-11 -9.639565E-09  0.000000E+00  0.000000E+00  0.000000E+00  0.000000E+00  0.000000E+00  0.000000E+00  0.000000E+00  0.000000E+00  2.600514E+00 -1.136834E-01 -3.467348E-03 -2.598026E+00                                                                                                                                                                                                                                                                                                                                                                                                                                                                                              
  1.435000E+03  1.250000E+02 -5.225000E+03  3.532500E-06 -6.605931E-08 -4.473786E-09 -3.531880E-06  9.926396E-09 -1.873581E-10 -1.268866E-11 -9.924620E-09  0.000000E+00  0.000000E+00  0.000000E+00  0.000000E+00  0.000000E+00  0.000000E+00  0.000000E+00  0.000000E+00  2.687591E+00 -5.268010E-02 -3.567670E-03 -2.687073E+00                                                                                                                                                                                                                                                                                                                                                                                                                                                                                              
  1.250000E+02  1.250000E+02 -4.975000E+03  6.793776E-06  1.049705E-07 -2.143358E-09 -6.792965E-06  1.863174E-08  2.924028E-10 -5.972374E-12 -1.862944E-08  0.000000E+00  0.000000E+00  0.000000E+00  0.000000E+00  0.000000E+00  0.000000E+00  0.000000E+00  0.000000E+00  4.583781E+00  7.824044E-02 -1.597402E-03 -4.583113E+00                                                                                                                                                                                                                                                                                                                                                                                                                                                                                              
  3.750000E+02  1.250000E+02 -4.975000E+03  6.495361E-06  1.751050E-07 -2.456776E-09 -6.492999E-06  1.781141E-08  4.877509E-10 -6.844161E-12 -1.780473E-08  0.000000E+00  0.000000E+00  0.000000E+00  0.000000E+00  0.000000E+00  0.000000E+00  0.000000E+00  0.000000E+00  4.308377E+00  1.301986E-01 -1.819998E-03 -4.306409E+00                                                                                                                                                                                                                                                                                                                                                                                                                                                                                              
  6.250000E+02  1.250000E+02 -4.975000E+03  6.304574E-06  2.774962E-08 -2.851372E-09 -6.304512E-06  1.728823E-08  7.729184E-11 -7.942750E-12 -1.728806E-08  0.000000E+00  0.000000E+00  0.000000E+00  0.000000E+00  0.000000E+00  0.000000E+00  0.000000E+00  0.000000E+00  4.140510E+00  2.067186E-02 -2.104958E-03 -4.140458E+00                                                                                                                                                                                                                                                                                                                                                                                                                                                                                              
  7.600000E+02  1.250000E+02 -4.975000E+03  6.321292E-06 -9.362361E-08 -2.968004E-09 -6.320598E-06  1.733205E-08 -2.607701E-10 -8.266707E-12 -1.733008E-08  0.000000E+00  0.000000E+00  0.000000E+00  0.000000E+00  0.000000E+00  0.000000E+00  0.000000E+00  0.000000E+00  4.152212E+00 -6.911042E-02 -2.190828E-03 -4.151636E+00                                                                                                                                                                                                                                                                                                                                                                                                                                                                                              
  7.800000E+02  1.250000E+02 -4.975000E+03  6.326565E-06 -1.111915E-07 -2.984377E-09 -6.325587E-06  1.734629E-08 -3.096986E-10 -8.312216E-12 -1.734352E-08  0.000000E+00  0.000000E+00  0.000000E+00  0.000000E+00  0.000000E+00  0.000000E+00  0.000000E+00  0.000000E+00  4.156574E+00 -8.209601E-02 -2.203051E-03 -4.155763E+00                                                                                                                                                                                                                                                                                                                                                                                                                                                                                              
  8.000000E+02  1.250000E+02 -4.975000E+03  6.338068E-06 -1.281417E-07 -3.000300E-09 -6.336772E-06  1.737808E-08 -3.569053E-10 -8.356703E-12 -1.737441E-08  0.000000E+00  0.000000E+00  0.000000E+00  0.000000E+00  0.000000E+00  0.000000E+00  0.000000E+00  0.000000E+00  4.167642E+00 -9.473151E-02 -2.215547E-03 -4.166565E+00                                                                                                                                                                                                                                                                                                                                                                                                                                                                                              
  9.350000E+02  1.250000E+02 -4.975000E+03  6.420792E-06 -1.981804E-07 -3.101774E-09 -6.417732E-06  1.760563E-08 -5.518950E-10 -8.639945E-12 -1.759698E-08  0.000000E+00  0.000000E+00  0.000000E+00  0.000000E+00  0.000000E+00  0.000000E+00  0.000000E+00  0.000000E+00  4.244858E+00 -1.470206E-01 -2.295208E-03 -4.242310E+00                                                                                                                                                                                                                                                                                                                                                                                                                                                                                              
  1.185000E+03  1.250000E+02 -4.975000E+03  6.621349E-06 -2.571449E-07 -3.290082E-09 -6.616353E-06  1.815275E-08 -7.160423E-10 -9.163139E-12 -1.813862E-08  0.000000E+00  0.000000E+00  0.000000E+00  0.000000E+00  0.000000E+00  0.000000E+00  0.000000E+00  0.000000E+00  4.424921E+00 -1.915775E-01 -2.443721E-03 -4.420771E+00                                                                                                                                                                                                                                                                                                                                                                                                                                                                                              
  1.435000E+03  1.250000E+02 -4.975000E+03  6.898801E-06 -1.271534E-07 -3.493884E-09 -6.897628E-06  1.891456E-08 -3.540678E-10 -9.731883E-12 -1.891124E-08  0.000000E+00  0.000000E+00  0.000000E+00  0.000000E+00  0.000000E+00  0.000000E+00  0.000000E+00  0.000000E+00  4.687586E+00 -9.501646E-02 -2.610540E-03 -4.686622E+00                                                                                                                                                                                                                                                                                                                                                                                                                                                                                              
  1.250000E+02  1.250000E+02 -4.725000E+03  1.041594E-05  1.835319E-07 -7.283918E-10 -1.041432E-05  2.752483E-08  4.920134E-10 -1.954849E-12 -2.752043E-08  0.000000E+00  0.000000E+00  0.000000E+00  0.000000E+00  0.000000E+00  0.000000E+00  0.000000E+00  0.000000E+00  5.517913E+00  1.160913E-01 -4.606167E-04 -5.516691E+00                                                                                                                                                                                                                                                                                                                                                                                                                                                                                              
  3.750000E+02  1.250000E+02 -4.725000E+03  9.734487E-06  3.042902E-07 -8.715193E-10 -9.729730E-06  2.568011E-08  8.154907E-10 -2.335992E-12 -2.566716E-08  0.000000E+00  0.000000E+00  0.000000E+00  0.000000E+00  0.000000E+00  0.000000E+00  0.000000E+00  0.000000E+00  4.895186E+00  1.904777E-01 -5.367876E-04 -4.891479E+00                                                                                                                                                                                                                                                                                                                                                                                                                                                                                              
  6.250000E+02  1.250000E+02 -4.725000E+03  9.356288E-06  7.173611E-08 -1.142724E-09 -9.356013E-06  2.465948E-08  1.921747E-10 -3.061075E-12 -2.465873E-08  0.000000E+00  0.000000E+00  0.000000E+00  0.000000E+00  0.000000E+00  0.000000E+00  0.000000E+00  0.000000E+00  4.565540E+00  4.464088E-02 -6.931914E-04 -4.565322E+00                                                                                                                                                                                                                                                                                                                                                                                                                                                                                              
  7.600000E+02  1.250000E+02 -4.725000E+03  9.342071E-06 -1.142517E-07 -1.320454E-09 -9.341372E-06  2.462274E-08 -3.060136E-10 -3.536736E-12 -2.462084E-08  0.000000E+00  0.000000E+00  0.000000E+00  0.000000E+00  0.000000E+00  0.000000E+00  0.000000E+00  0.000000E+00  4.564172E+00 -6.933822E-02 -8.012184E-04 -4.563645E+00                                                                                                                                                                                                                                                                                                                                                                                                                                                                                              
  7.800000E+02  1.250000E+02 -4.725000E+03  9.348003E-06 -1.467643E-07 -1.348147E-09 -9.346851E-06  2.463890E-08 -3.931000E-10 -3.610902E-12 -2.463576E-08  0.000000E+00  0.000000E+00  0.000000E+00  0.000000E+00  0.000000E+00  0.000000E+00  0.000000E+00  0.000000E+00  4.570406E+00 -8.914572E-02 -8.182929E-04 -4.569537E+00                                                                                                                                                                                                                                                                                                                                                                                                                                                                                              
  8.000000E+02  1.250000E+02 -4.725000E+03  9.361000E-06 -1.797221E-07 -1.378717E-09 -9.359275E-06  2.467515E-08 -4.814082E-10 -3.693029E-12 -2.467045E-08  0.000000E+00  0.000000E+00  0.000000E+00  0.000000E+00  0.000000E+00  0.000000E+00  0.000000E+00  0.000000E+00  4.583848E+00 -1.097233E-01 -8.379080E-04 -4.582534E+00                                                                                                                                                                                                                                                                                                                                                                                                                                                                                              
  9.350000E+02  1.250000E+02 -4.725000E+03  9.626436E-06 -2.628152E-07 -1.596500E-09 -9.622847E-06  2.538607E-08 -7.040828E-10 -4.278027E-12 -2.537631E-08  0.000000E+00  0.000000E+00  0.000000E+00  0.000000E+00  0.000000E+00  0.000000E+00  0.000000E+00  0.000000E+00  4.800401E+00 -1.627024E-01 -9.782646E-04 -4.797642E+00                                                                                                                                                                                                                                                                                                                                                                                                                                                                                              
  1.185000E+03  1.250000E+02 -4.725000E+03  9.934942E-06 -3.531477E-07 -2.039268E-09 -9.928664E-06  2.622608E-08 -9.465324E-10 -5.467023E-12 -2.620899E-08  0.000000E+00  0.000000E+00  0.000000E+00  0.000000E+00  0.000000E+00  0.000000E+00  0.000000E+00  0.000000E+00  5.109719E+00 -2.229896E-01 -1.269839E-03 -5.104851E+00                                                                                                                                                                                                                                                                                                                                                                                                                                                                                              