Title="TOUGHREACT V3.30-OMP flowvector.tec: Liq & Gas Fluxes (kg/s/m^2), Pore Velocities (m/s), & Heat Fluxes (J/s/m2)"                                                                                                                                                                                                                                                                                                                                                                                                                                                                                                                                                                                                                                                                                                         
Variables= "X(m)"     "Y(m)"      "Z(m)"     "FluxLiq"   "FluxLiq_X"   "FluxLiq_Y"   "FluxLiq_Z"   "PorVelLiq"  "PorVelLiqX"  "PorVelLiqY"  "PorVelLiqZ"     "FluxGas"   "FluxGas_X"   "FluxGas_Y"   "FluxGas_Z"   "PorVelGas"  "PorVelGasX"  "PorVelGasY"  "PorVelGasZ"    "HeatFlux"  "HeatFlux_X"  "HeatFlux_Y"  "HeatFlux_Z"                                                                                                                                                                                                                                                                                                                                                                                                                                                                                                
Zone T= "1.00000000E+10 sec" I=     9 J=    10 K=    23 F=Point
  1.250000E+02  1.250000E+02 -5.425000E+03  9.434349E-07  2.230571E-08 -3.528398E-09 -9.431646E-07  3.040833E-09  7.226703E-11 -1.143120E-11 -3.039952E-09  0.000000E+00  0.000000E+00  0.000000E+00  0.000000E+00  0.000000E+00  0.000000E+00  0.000000E+00  0.000000E+00  7.176627E-01  1.769118E-02 -2.798478E-03 -7.174392E-01                                                                                                                                                                                                                                                                                                                                                                                                                                                                                              
  3.750000E+02  1.250000E+02 -5.425000E+03  9.240098E-07  3.432993E-08 -3.654928E-09 -9.233646E-07  2.978628E-09  1.112273E-10 -1.184227E-11 -2.976527E-09  0.000000E+00  0.000000E+00  0.000000E+00  0.000000E+00  0.000000E+00  0.000000E+00  0.000000E+00  0.000000E+00  7.026677E-01  2.722846E-02 -2.899012E-03 -7.021339E-01                                                                                                                                                                                                                                                                                                                                                                                                                                                                                              
  6.250000E+02  1.250000E+02 -5.425000E+03  9.086212E-07 -1.066183E-08 -3.824855E-09 -9.085506E-07  2.929251E-09 -3.454618E-11 -1.239353E-11 -2.929021E-09  0.000000E+00  0.000000E+00  0.000000E+00  0.000000E+00  0.000000E+00  0.000000E+00  0.000000E+00  0.000000E+00  6.907875E-01 -8.457877E-03 -3.033977E-03 -6.907290E-01                                                                                                                                                                                                                                                                                                                                                                                                                                                                                              
  7.600000E+02  1.250000E+02 -5.425000E+03  9.121029E-07 -4.785785E-08 -3.894955E-09 -9.108382E-07  2.940352E-09 -1.550662E-10 -1.262007E-11 -2.936233E-09  0.000000E+00  0.000000E+00  0.000000E+00  0.000000E+00  0.000000E+00  0.000000E+00  0.000000E+00  0.000000E+00  6.935113E-01 -3.796208E-02 -3.089605E-03 -6.924646E-01                                                                                                                                                                                                                                                                                                                                                                                                                                                                                              
  7.800000E+02  1.250000E+02 -5.425000E+03  9.128362E-07 -5.276991E-08 -3.905120E-09 -9.113013E-07  2.942698E-09 -1.709804E-10 -1.265290E-11 -2.937700E-09  0.000000E+00  0.000000E+00  0.000000E+00  0.000000E+00  0.000000E+00  0.000000E+00  0.000000E+00  0.000000E+00  6.940910E-01 -4.185851E-02 -3.097671E-03 -6.928207E-01                                                                                                                                                                                                                                                                                                                                                                                                                                                                                              
  8.000000E+02  1.250000E+02 -5.425000E+03  9.137198E-07 -5.754543E-08 -3.915071E-09 -9.118975E-07  2.945530E-09 -1.864471E-10 -1.268503E-11 -2.939596E-09  0.000000E+00  0.000000E+00  0.000000E+00  0.000000E+00  0.000000E+00  0.000000E+00  0.000000E+00  0.000000E+00  6.948003E-01 -4.564685E-02 -3.105570E-03 -6.932922E-01                                                                                                                                                                                                                                                                                                                                                                                                                                                                                              
  9.350000E+02  1.250000E+02 -5.425000E+03  9.203134E-07 -8.149916E-08 -3.980868E-09 -9.166890E-07  2.966647E-09 -2.640170E-10 -1.289741E-11 -2.954848E-09  0.000000E+00  0.000000E+00  0.000000E+00  0.000000E+00  0.000000E+00  0.000000E+00  0.000000E+00  0.000000E+00  7.000733E-01 -6.464718E-02 -3.157794E-03 -6.970749E-01                                                                                                                                                                                                                                                                                                                                                                                                                                                                                              
  1.185000E+03  1.250000E+02 -5.425000E+03  9.405885E-07 -9.341850E-08 -4.087107E-09 -9.359290E-07  3.031283E-09 -3.025846E-10 -1.323886E-11 -3.016114E-09  0.000000E+00  0.000000E+00  0.000000E+00  0.000000E+00  0.000000E+00  0.000000E+00  0.000000E+00  0.000000E+00  7.157370E-01 -7.410027E-02 -3.242004E-03 -7.118835E-01                                                                                                                                                                                                                                                                                                                                                                                                                                                                                              
  1.435000E+03  1.250000E+02 -5.425000E+03  9.565426E-07 -4.186666E-08 -4.165855E-09 -9.556169E-07  3.081936E-09 -1.355942E-10 -1.349164E-11 -3.078922E-09  0.000000E+00  0.000000E+00  0.000000E+00  0.000000E+00  0.000000E+00  0.000000E+00  0.000000E+00  0.000000E+00  7.278727E-01 -3.320837E-02 -3.304363E-03 -7.271073E-01                                                                                                                                                                                                                                                                                                                                                                                                                                                                                              
  1.250000E+02  1.250000E+02 -5.225000E+03  3.491733E-06  3.718193E-08 -3.037894E-09 -3.491534E-06  1.112757E-08  1.195351E-10 -9.766446E-12 -1.112692E-08  0.000000E+00  0.000000E+00  0.000000E+00  0.000000E+00  0.000000E+00  0.000000E+00  0.000000E+00  0.000000E+00  2.552841E+00  2.828326E-02 -2.310840E-03 -2.552683E+00                                                                                                                                                                                                                                                                                                                                                                                                                                                                                              
  3.750000E+02  1.250000E+02 -5.225000E+03  3.401267E-06  6.053312E-08 -3.213727E-09 -3.400727E-06  1.084071E-08  1.946147E-10 -1.033285E-11 -1.083896E-08  0.000000E+00  0.000000E+00  0.000000E+00  0.000000E+00  0.000000E+00  0.000000E+00  0.000000E+00  0.000000E+00  2.477896E+00  4.603970E-02 -2.443756E-03 -2.477467E+00                                                                                                                                                                                                                                                                                                                                                                                                                                                                                              
  6.250000E+02  1.250000E+02 -5.225000E+03  3.336121E-06 -1.924325E-09 -3.427292E-09 -3.336119E-06  1.063415E-08 -6.189180E-12 -1.102028E-11 -1.063414E-08  0.000000E+00  0.000000E+00  0.000000E+00  0.000000E+00  0.000000E+00  0.000000E+00  0.000000E+00  0.000000E+00  2.425119E+00 -1.459273E-03 -2.605636E-03 -2.425117E+00                                                                                                                                                                                                                                                                                                                                                                                                                                                                                              
  7.600000E+02  1.250000E+02 -5.225000E+03  3.345088E-06 -5.414352E-08 -3.487920E-09 -3.344648E-06  1.066192E-08 -1.740875E-10 -1.121458E-11 -1.066049E-08  0.000000E+00  0.000000E+00  0.000000E+00  0.000000E+00  0.000000E+00  0.000000E+00  0.000000E+00  0.000000E+00  2.431526E+00 -4.116273E-02 -2.651713E-03 -2.431176E+00                                                                                                                                                                                                                                                                                                                                                                                                                                                                                              
  7.800000E+02  1.250000E+02 -5.225000E+03  3.347105E-06 -6.125369E-08 -3.496371E-09 -3.346543E-06  1.066823E-08 -1.969468E-10 -1.124166E-11 -1.066641E-08  0.000000E+00  0.000000E+00  0.000000E+00  0.000000E+00  0.000000E+00  0.000000E+00  0.000000E+00  0.000000E+00  2.433085E+00 -4.656903E-02 -2.658153E-03 -2.432638E+00                                                                                                                                                                                                                                                                                                                                                                                                                                                                                              
  8.000000E+02  1.250000E+02 -5.225000E+03  3.350110E-06 -6.815554E-08 -3.504309E-09 -3.349415E-06  1.067777E-08 -2.191301E-10 -1.126710E-11 -1.067551E-08  0.000000E+00  0.000000E+00  0.000000E+00  0.000000E+00  0.000000E+00  0.000000E+00  0.000000E+00  0.000000E+00  2.435724E+00 -5.182236E-02 -2.664257E-03 -2.435171E+00                                                                                                                                                                                                                                                                                                                                                                                                                                                                                              
  9.350000E+02  1.250000E+02 -5.225000E+03  3.373699E-06 -1.007693E-07 -3.554641E-09 -3.372192E-06  1.075256E-08 -3.239317E-10 -1.142830E-11 -1.074767E-08  0.000000E+00  0.000000E+00  0.000000E+00  0.000000E+00  0.000000E+00  0.000000E+00  0.000000E+00  0.000000E+00  2.456242E+00 -7.664006E-02 -2.703057E-03 -2.455045E+00                                                                                                                                                                                                                                                                                                                                                                                                                                                                                              
  1.185000E+03  1.250000E+02 -5.225000E+03  3.451807E-06 -1.209693E-07 -3.635057E-09 -3.449685E-06  1.099841E-08 -3.887998E-10 -1.168409E-11 -1.099153E-08  0.000000E+00  0.000000E+00  0.000000E+00  0.000000E+00  0.000000E+00  0.000000E+00  0.000000E+00  0.000000E+00  2.518947E+00 -9.202586E-02 -2.764885E-03 -2.517264E+00                                                                                                                                                                                                                                                                                                                                                                                                                                                                                              
  1.435000E+03  1.250000E+02 -5.225000E+03  3.536854E-06 -5.596979E-08 -3.713861E-09 -3.536409E-06  1.126702E-08 -1.798702E-10 -1.193516E-11 -1.126558E-08  0.000000E+00  0.000000E+00  0.000000E+00  0.000000E+00  0.000000E+00  0.000000E+00  0.000000E+00  0.000000E+00  2.589688E+00 -4.258615E-02 -2.825788E-03 -2.589337E+00                                                                                                                                                                                                                                                                                                                                                                                                                                                                                              
  1.250000E+02  1.250000E+02 -4.975000E+03  6.805367E-06  9.483936E-08 -1.840235E-09 -6.804706E-06  2.120169E-08  2.998152E-10 -5.819006E-12 -2.119957E-08  0.000000E+00  0.000000E+00  0.000000E+00  0.000000E+00  0.000000E+00  0.000000E+00  0.000000E+00  0.000000E+00  4.511363E+00  6.829989E-02 -1.325144E-03 -4.510846E+00                                                                                                                                                                                                                                                                                                                                                                                                                                                                                              
  3.750000E+02  1.250000E+02 -4.975000E+03  6.541073E-06  1.598468E-07 -2.123735E-09 -6.539119E-06  2.037506E-08  5.053135E-10 -6.714457E-12 -2.036879E-08  0.000000E+00  0.000000E+00  0.000000E+00  0.000000E+00  0.000000E+00  0.000000E+00  0.000000E+00  0.000000E+00  4.267891E+00  1.148857E-01 -1.521855E-03 -4.266344E+00                                                                                                                                                                                                                                                                                                                                                                                                                                                                                              
  6.250000E+02  1.250000E+02 -4.975000E+03  6.368776E-06  2.912597E-08 -2.458373E-09 -6.368709E-06  1.983755E-08  9.206960E-11 -7.771993E-12 -1.983733E-08  0.000000E+00  0.000000E+00  0.000000E+00  0.000000E+00  0.000000E+00  0.000000E+00  0.000000E+00  0.000000E+00  4.116421E+00  2.095210E-02 -1.756406E-03 -4.116367E+00                                                                                                                                                                                                                                                                                                                                                                                                                                                                                              
  7.600000E+02  1.250000E+02 -4.975000E+03  6.383205E-06 -7.974246E-08 -2.521715E-09 -6.382707E-06  1.988037E-08 -2.520794E-10 -7.971500E-12 -1.987877E-08  0.000000E+00  0.000000E+00  0.000000E+00  0.000000E+00  0.000000E+00  0.000000E+00  0.000000E+00  0.000000E+00  4.125687E+00 -5.696944E-02 -1.801500E-03 -4.125293E+00                                                                                                                                                                                                                                                                                                                                                                                                                                                                                              
  7.800000E+02  1.250000E+02 -4.975000E+03  6.387743E-06 -9.558766E-08 -2.529936E-09 -6.387028E-06  1.989427E-08 -3.021656E-10 -7.997408E-12 -1.989198E-08  0.000000E+00  0.000000E+00  0.000000E+00  0.000000E+00  0.000000E+00  0.000000E+00  0.000000E+00  0.000000E+00  4.129284E+00 -6.830026E-02 -1.807461E-03 -4.128719E+00                                                                                                                                                                                                                                                                                                                                                                                                                                                                                              
  8.000000E+02  1.250000E+02 -4.975000E+03  6.397491E-06 -1.109152E-07 -2.537131E-09 -6.396528E-06  1.992484E-08 -3.506146E-10 -8.020230E-12 -1.992176E-08  0.000000E+00  0.000000E+00  0.000000E+00  0.000000E+00  0.000000E+00  0.000000E+00  0.000000E+00  0.000000E+00  4.138454E+00 -7.933940E-02 -1.813044E-03 -4.137693E+00                                                                                                                                                                                                                                                                                                                                                                                                                                                                                              
  9.350000E+02  1.250000E+02 -4.975000E+03  6.474306E-06 -1.718978E-07 -2.578848E-09 -6.472023E-06  2.016542E-08 -5.433169E-10 -8.152655E-12 -2.015810E-08  0.000000E+00  0.000000E+00  0.000000E+00  0.000000E+00  0.000000E+00  0.000000E+00  0.000000E+00  0.000000E+00  4.210106E+00 -1.233227E-01 -1.846191E-03 -4.208299E+00                                                                                                                                                                                                                                                                                                                                                                                                                                                                                              
  1.185000E+03  1.250000E+02 -4.975000E+03  6.649537E-06 -2.219608E-07 -2.669807E-09 -6.645831E-06  2.070932E-08 -7.014962E-10 -8.439100E-12 -2.069743E-08  0.000000E+00  0.000000E+00  0.000000E+00  0.000000E+00  0.000000E+00  0.000000E+00  0.000000E+00  0.000000E+00  4.366572E+00 -1.597808E-01 -1.917271E-03 -4.363648E+00                                                                                                                                                                                                                                                                                                                                                                                                                                                                                              
  1.435000E+03  1.250000E+02 -4.975000E+03  6.885523E-06 -1.092515E-07 -2.813619E-09 -6.884656E-06  2.144719E-08 -3.452792E-10 -8.894241E-12 -2.144441E-08  0.000000E+00  0.000000E+00  0.000000E+00  0.000000E+00  0.000000E+00  0.000000E+00  0.000000E+00  0.000000E+00  4.590584E+00 -7.883293E-02 -2.030006E-03 -4.589906E+00                                                                                                                                                                                                                                                                                                                                                                                                                                                                                              
  1.250000E+02  1.250000E+02 -4.725000E+03  1.039656E-05  1.653148E-07 -8.962513E-10 -1.039525E-05  3.129439E-08  5.046708E-10 -2.739039E-12 -3.129032E-08  0.000000E+00  0.000000E+00  0.000000E+00  0.000000E+00  0.000000E+00  0.000000E+00  0.000000E+00  0.000000E+00  5.483929E+00  1.039195E-01 -5.632167E-04 -5.482944E+00                                                                                                                                                                                                                                                                                                                                                                                                                                                                                              
  3.750000E+02  1.250000E+02 -4.725000E+03  9.792130E-06  2.768700E-07 -8.998028E-10 -9.788215E-06  2.942350E-08  8.449202E-10 -2.746140E-12 -2.941137E-08  0.000000E+00  0.000000E+00  0.000000E+00  0.000000E+00  0.000000E+00  0.000000E+00  0.000000E+00  0.000000E+00  4.913665E+00  1.723346E-01 -5.517516E-04 -4.910642E+00                                                                                                                                                                                                                                                                                                                                                                                                                                                                                              
  6.250000E+02  1.250000E+02 -4.725000E+03  9.444348E-06  6.648247E-08 -1.074701E-09 -9.444114E-06  2.835095E-08  2.027999E-10 -3.277675E-12 -2.835022E-08  0.000000E+00  0.000000E+00  0.000000E+00  0.000000E+00  0.000000E+00  0.000000E+00  0.000000E+00  0.000000E+00  4.600458E+00  4.117458E-02 -6.495357E-04 -4.600274E+00                                                                                                                                                                                                                                                                                                                                                                                                                                                                                              
  7.600000E+02  1.250000E+02 -4.725000E+03  9.429919E-06 -1.050953E-07 -1.243267E-09 -9.429334E-06  2.830806E-08 -3.204841E-10 -3.791283E-12 -2.830624E-08  0.000000E+00  0.000000E+00  0.000000E+00  0.000000E+00  0.000000E+00  0.000000E+00  0.000000E+00  0.000000E+00  4.597993E+00 -6.352483E-02 -7.513713E-04 -4.597554E+00                                                                                                                                                                                                                                                                                                                                                                                                                                                                                              
  7.800000E+02  1.250000E+02 -4.725000E+03  9.435263E-06 -1.350561E-07 -1.269998E-09 -9.434297E-06  2.832461E-08 -4.118493E-10 -3.872779E-12 -2.832162E-08  0.000000E+00  0.000000E+00  0.000000E+00  0.000000E+00  0.000000E+00  0.000000E+00  0.000000E+00  0.000000E+00  4.603724E+00 -8.169121E-02 -7.677140E-04 -4.602999E+00                                                                                                                                                                                                                                                                                                                                                                                                                                                                                              
  8.000000E+02  1.250000E+02 -4.725000E+03  9.446771E-06 -1.653321E-07 -1.299837E-09 -9.445324E-06  2.836114E-08 -5.042186E-10 -3.964004E-12 -2.835665E-08  0.000000E+00  0.000000E+00  0.000000E+00  0.000000E+00  0.000000E+00  0.000000E+00  0.000000E+00  0.000000E+00  4.615833E+00 -1.004947E-01 -7.865739E-04 -4.614739E+00                                                                                                                                                                                                                                                                                                                                                                                                                                                                                              
  9.350000E+02  1.250000E+02 -4.725000E+03  9.697660E-06 -2.366453E-07 -1.519353E-09 -9.694772E-06  2.912897E-08 -7.218693E-10 -4.635472E-12 -2.912002E-08  0.000000E+00  0.000000E+00  0.000000E+00  0.000000E+00  0.000000E+00  0.000000E+00  0.000000E+00  0.000000E+00  4.826384E+00 -1.456946E-01 -9.267752E-04 -4.824184E+00                                                                                                                                                                                                                                                                                                                                                                                                                                                                                              
  1.185000E+03  1.250000E+02 -4.725000E+03  9.972611E-06 -3.065395E-07 -2.021730E-09 -9.967898E-06  2.998503E-08 -9.356076E-10 -6.171548E-12 -2.997042E-08  0.000000E+00  0.000000E+00  0.000000E+00  0.000000E+00  0.000000E+00  0.000000E+00  0.000000E+00  0.000000E+00  5.111477E+00 -1.921328E-01 -1.251363E-03 -5.107864E+00                                                                                                                                                                                                                                                                                                                                                                                                                                                                                              