Title="TOUGHREACT V3.30-OMP flowvector.tec: Liq & Gas Fluxes (kg/s/m^2), Pore Velocities (m/s), & Heat Fluxes (J/s/m2)"                                                                                                                                                                                                                                                                                                                                                                                                                                                                                                                                                                                                                                                                                                         
Variables= "X(m)"     "Y(m)"      "Z(m)"     "FluxLiq"   "FluxLiq_X"   "FluxLiq_Y"   "FluxLiq_Z"   "PorVelLiq"  "PorVelLiqX"  "PorVelLiqY"  "PorVelLiqZ"     "FluxGas"   "FluxGas_X"   "FluxGas_Y"   "FluxGas_Z"   "PorVelGas"  "PorVelGasX"  "PorVelGasY"  "PorVelGasZ"    "HeatFlux"  "HeatFlux_X"  "HeatFlux_Y"  "HeatFlux_Z"                                                                                                                                                                                                                                                                                                                                                                                                                                                                                                
Zone T= "5.00000000E-02 sec" I=     9 J=    10 K=    23 F=Point
  1.250000E+02  1.250000E+02 -5.425000E+03  1.144488E-07  0.000000E+00  0.000000E+00  1.144488E-07  6.043298E-10  0.000000E+00  0.000000E+00  6.043298E-10  0.000000E+00  0.000000E+00  0.000000E+00  0.000000E+00  0.000000E+00  0.000000E+00  0.000000E+00  0.000000E+00  7.526557E-02  0.000000E+00  0.000000E+00  7.526557E-02                                                                                                                                                                                                                                                                                                                                                                                                                                                                                              
  3.750000E+02  1.250000E+02 -5.425000E+03  1.144488E-07  0.000000E+00  0.000000E+00  1.144488E-07  6.043298E-10  0.000000E+00  0.000000E+00  6.043298E-10  0.000000E+00  0.000000E+00  0.000000E+00  0.000000E+00  0.000000E+00  0.000000E+00  0.000000E+00  0.000000E+00  7.526557E-02  0.000000E+00  0.000000E+00  7.526557E-02                                                                                                                                                                                                                                                                                                                                                                                                                                                                                              
  6.250000E+02  1.250000E+02 -5.425000E+03  1.144488E-07  0.000000E+00  0.000000E+00  1.144488E-07  6.043298E-10  0.000000E+00  0.000000E+00  6.043298E-10  0.000000E+00  0.000000E+00  0.000000E+00  0.000000E+00  0.000000E+00  0.000000E+00  0.000000E+00  0.000000E+00  7.526557E-02  0.000000E+00  0.000000E+00  7.526557E-02                                                                                                                                                                                                                                                                                                                                                                                                                                                                                              
  7.600000E+02  1.250000E+02 -5.425000E+03  1.144488E-07  0.000000E+00  0.000000E+00  1.144488E-07  6.043298E-10  0.000000E+00  0.000000E+00  6.043298E-10  0.000000E+00  0.000000E+00  0.000000E+00  0.000000E+00  0.000000E+00  0.000000E+00  0.000000E+00  0.000000E+00  7.526557E-02  0.000000E+00  0.000000E+00  7.526557E-02                                                                                                                                                                                                                                                                                                                                                                                                                                                                                              
  7.800000E+02  1.250000E+02 -5.425000E+03  1.144488E-07  0.000000E+00  0.000000E+00  1.144488E-07  6.043298E-10  0.000000E+00  0.000000E+00  6.043298E-10  0.000000E+00  0.000000E+00  0.000000E+00  0.000000E+00  0.000000E+00  0.000000E+00  0.000000E+00  0.000000E+00  7.526557E-02  0.000000E+00  0.000000E+00  7.526557E-02                                                                                                                                                                                                                                                                                                                                                                                                                                                                                              
  8.000000E+02  1.250000E+02 -5.425000E+03  1.144488E-07  0.000000E+00  0.000000E+00  1.144488E-07  6.043298E-10  0.000000E+00  0.000000E+00  6.043298E-10  0.000000E+00  0.000000E+00  0.000000E+00  0.000000E+00  0.000000E+00  0.000000E+00  0.000000E+00  0.000000E+00  7.526557E-02  0.000000E+00  0.000000E+00  7.526557E-02                                                                                                                                                                                                                                                                                                                                                                                                                                                                                              
  9.350000E+02  1.250000E+02 -5.425000E+03  1.144488E-07  0.000000E+00  0.000000E+00  1.144488E-07  6.043298E-10  0.000000E+00  0.000000E+00  6.043298E-10  0.000000E+00  0.000000E+00  0.000000E+00  0.000000E+00  0.000000E+00  0.000000E+00  0.000000E+00  0.000000E+00  7.526557E-02  0.000000E+00  0.000000E+00  7.526557E-02                                                                                                                                                                                                                                                                                                                                                                                                                                                                                              
  1.185000E+03  1.250000E+02 -5.425000E+03  1.144488E-07  0.000000E+00  0.000000E+00  1.144488E-07  6.043298E-10  0.000000E+00  0.000000E+00  6.043298E-10  0.000000E+00  0.000000E+00  0.000000E+00  0.000000E+00  0.000000E+00  0.000000E+00  0.000000E+00  0.000000E+00  7.526557E-02  0.000000E+00  0.000000E+00  7.526557E-02                                                                                                                                                                                                                                                                                                                                                                                                                                                                                              
  1.435000E+03  1.250000E+02 -5.425000E+03  1.144488E-07  0.000000E+00  0.000000E+00  1.144488E-07  6.043298E-10  0.000000E+00  0.000000E+00  6.043298E-10  0.000000E+00  0.000000E+00  0.000000E+00  0.000000E+00  0.000000E+00  0.000000E+00  0.000000E+00  0.000000E+00  7.526557E-02  0.000000E+00  0.000000E+00  7.526557E-02                                                                                                                                                                                                                                                                                                                                                                                                                                                                                              
  1.250000E+02  1.250000E+02 -5.225000E+03  2.178420E-07  0.000000E+00  0.000000E+00  2.178420E-07  1.148316E-09  0.000000E+00  0.000000E+00  1.148316E-09  0.000000E+00  0.000000E+00  0.000000E+00  0.000000E+00  0.000000E+00  0.000000E+00  0.000000E+00  0.000000E+00  1.410119E-01  0.000000E+00  0.000000E+00  1.410119E-01                                                                                                                                                                                                                                                                                                                                                                                                                                                                                              
  3.750000E+02  1.250000E+02 -5.225000E+03  2.178420E-07  0.000000E+00  0.000000E+00  2.178420E-07  1.148316E-09  0.000000E+00  0.000000E+00  1.148316E-09  0.000000E+00  0.000000E+00  0.000000E+00  0.000000E+00  0.000000E+00  0.000000E+00  0.000000E+00  0.000000E+00  1.410119E-01  0.000000E+00  0.000000E+00  1.410119E-01                                                                                                                                                                                                                                                                                                                                                                                                                                                                                              
  6.250000E+02  1.250000E+02 -5.225000E+03  2.178420E-07  0.000000E+00  0.000000E+00  2.178420E-07  1.148316E-09  0.000000E+00  0.000000E+00  1.148316E-09  0.000000E+00  0.000000E+00  0.000000E+00  0.000000E+00  0.000000E+00  0.000000E+00  0.000000E+00  0.000000E+00  1.410119E-01  0.000000E+00  0.000000E+00  1.410119E-01                                                                                                                                                                                                                                                                                                                                                                                                                                                                                              
  7.600000E+02  1.250000E+02 -5.225000E+03  2.178420E-07  0.000000E+00  0.000000E+00  2.178420E-07  1.148316E-09  0.000000E+00  0.000000E+00  1.148316E-09  0.000000E+00  0.000000E+00  0.000000E+00  0.000000E+00  0.000000E+00  0.000000E+00  0.000000E+00  0.000000E+00  1.410119E-01  0.000000E+00  0.000000E+00  1.410119E-01                                                                                                                                                                                                                                                                                                                                                                                                                                                                                              
  7.800000E+02  1.250000E+02 -5.225000E+03  2.178420E-07  0.000000E+00  0.000000E+00  2.178420E-07  1.148316E-09  0.000000E+00  0.000000E+00  1.148316E-09  0.000000E+00  0.000000E+00  0.000000E+00  0.000000E+00  0.000000E+00  0.000000E+00  0.000000E+00  0.000000E+00  1.410119E-01  0.000000E+00  0.000000E+00  1.410119E-01                                                                                                                                                                                                                                                                                                                                                                                                                                                                                              
  8.000000E+02  1.250000E+02 -5.225000E+03  2.178420E-07  0.000000E+00  0.000000E+00  2.178420E-07  1.148316E-09  0.000000E+00  0.000000E+00  1.148316E-09  0.000000E+00  0.000000E+00  0.000000E+00  0.000000E+00  0.000000E+00  0.000000E+00  0.000000E+00  0.000000E+00  1.410119E-01  0.000000E+00  0.000000E+00  1.410119E-01                                                                                                                                                                                                                                                                                                                                                                                                                                                                                              
  9.350000E+02  1.250000E+02 -5.225000E+03  2.178420E-07  0.000000E+00  0.000000E+00  2.178420E-07  1.148316E-09  0.000000E+00  0.000000E+00  1.148316E-09  0.000000E+00  0.000000E+00  0.000000E+00  0.000000E+00  0.000000E+00  0.000000E+00  0.000000E+00  0.000000E+00  1.410119E-01  0.000000E+00  0.000000E+00  1.410119E-01                                                                                                                                                                                                                                                                                                                                                                                                                                                                                              
  1.185000E+03  1.250000E+02 -5.225000E+03  2.178420E-07  0.000000E+00  0.000000E+00  2.178420E-07  1.148316E-09  0.000000E+00  0.000000E+00  1.148316E-09  0.000000E+00  0.000000E+00  0.000000E+00  0.000000E+00  0.000000E+00  0.000000E+00  0.000000E+00  0.000000E+00  1.410119E-01  0.000000E+00  0.000000E+00  1.410119E-01                                                                                                                                                                                                                                                                                                                                                                                                                                                                                              
  1.435000E+03  1.250000E+02 -5.225000E+03  2.178420E-07  0.000000E+00  0.000000E+00  2.178420E-07  1.148316E-09  0.000000E+00  0.000000E+00  1.148316E-09  0.000000E+00  0.000000E+00  0.000000E+00  0.000000E+00  0.000000E+00  0.000000E+00  0.000000E+00  0.000000E+00  1.410119E-01  0.000000E+00  0.000000E+00  1.410119E-01                                                                                                                                                                                                                                                                                                                                                                                                                                                                                              
  1.250000E+02  1.250000E+02 -4.975000E+03  1.946862E-07  0.000000E+00  0.000000E+00  1.946862E-07  1.022434E-09  0.000000E+00  0.000000E+00  1.022434E-09  0.000000E+00  0.000000E+00  0.000000E+00  0.000000E+00  0.000000E+00  0.000000E+00  0.000000E+00  0.000000E+00  1.213162E-01  0.000000E+00  0.000000E+00  1.213162E-01                                                                                                                                                                                                                                                                                                                                                                                                                                                                                              
  3.750000E+02  1.250000E+02 -4.975000E+03  1.946862E-07  0.000000E+00  0.000000E+00  1.946862E-07  1.022434E-09  0.000000E+00  0.000000E+00  1.022434E-09  0.000000E+00  0.000000E+00  0.000000E+00  0.000000E+00  0.000000E+00  0.000000E+00  0.000000E+00  0.000000E+00  1.213162E-01  0.000000E+00  0.000000E+00  1.213162E-01                                                                                                                                                                                                                                                                                                                                                                                                                                                                                              
  6.250000E+02  1.250000E+02 -4.975000E+03  1.946862E-07  0.000000E+00  0.000000E+00  1.946862E-07  1.022434E-09  0.000000E+00  0.000000E+00  1.022434E-09  0.000000E+00  0.000000E+00  0.000000E+00  0.000000E+00  0.000000E+00  0.000000E+00  0.000000E+00  0.000000E+00  1.213162E-01  0.000000E+00  0.000000E+00  1.213162E-01                                                                                                                                                                                                                                                                                                                                                                                                                                                                                              
  7.600000E+02  1.250000E+02 -4.975000E+03  1.946862E-07  0.000000E+00  0.000000E+00  1.946862E-07  1.022434E-09  0.000000E+00  0.000000E+00  1.022434E-09  0.000000E+00  0.000000E+00  0.000000E+00  0.000000E+00  0.000000E+00  0.000000E+00  0.000000E+00  0.000000E+00  1.213162E-01  0.000000E+00  0.000000E+00  1.213162E-01                                                                                                                                                                                                                                                                                                                                                                                                                                                                                              
  7.800000E+02  1.250000E+02 -4.975000E+03  1.946862E-07  0.000000E+00  0.000000E+00  1.946862E-07  1.022434E-09  0.000000E+00  0.000000E+00  1.022434E-09  0.000000E+00  0.000000E+00  0.000000E+00  0.000000E+00  0.000000E+00  0.000000E+00  0.000000E+00  0.000000E+00  1.213162E-01  0.000000E+00  0.000000E+00  1.213162E-01                                                                                                                                                                                                                                                                                                                                                                                                                                                                                              
  8.000000E+02  1.250000E+02 -4.975000E+03  1.946862E-07  0.000000E+00  0.000000E+00  1.946862E-07  1.022434E-09  0.000000E+00  0.000000E+00  1.022434E-09  0.000000E+00  0.000000E+00  0.000000E+00  0.000000E+00  0.000000E+00  0.000000E+00  0.000000E+00  0.000000E+00  1.213162E-01  0.000000E+00  0.000000E+00  1.213162E-01                                                                                                                                                                                                                                                                                                                                                                                                                                                                                              
  9.350000E+02  1.250000E+02 -4.975000E+03  1.946862E-07  0.000000E+00  0.000000E+00  1.946862E-07  1.022434E-09  0.000000E+00  0.000000E+00  1.022434E-09  0.000000E+00  0.000000E+00  0.000000E+00  0.000000E+00  0.000000E+00  0.000000E+00  0.000000E+00  0.000000E+00  1.213162E-01  0.000000E+00  0.000000E+00  1.213162E-01                                                                                                                                                                                                                                                                                                                                                                                                                                                                                              
  1.185000E+03  1.250000E+02 -4.975000E+03  1.946862E-07  0.000000E+00  0.000000E+00  1.946862E-07  1.022434E-09  0.000000E+00  0.000000E+00  1.022434E-09  0.000000E+00  0.000000E+00  0.000000E+00  0.000000E+00  0.000000E+00  0.000000E+00  0.000000E+00  0.000000E+00  1.213162E-01  0.000000E+00  0.000000E+00  1.213162E-01                                                                                                                                                                                                                                                                                                                                                                                                                                                                                              
  1.435000E+03  1.250000E+02 -4.975000E+03  1.946862E-07  0.000000E+00  0.000000E+00  1.946862E-07  1.022434E-09  0.000000E+00  0.000000E+00  1.022434E-09  0.000000E+00  0.000000E+00  0.000000E+00  0.000000E+00  0.000000E+00  0.000000E+00  0.000000E+00  0.000000E+00  1.213162E-01  0.000000E+00  0.000000E+00  1.213162E-01                                                                                                                                                                                                                                                                                                                                                                                                                                                                                              
  1.250000E+02  1.250000E+02 -4.725000E+03  2.047315E-07  0.000000E+00  0.000000E+00  2.047315E-07  1.071027E-09  0.000000E+00  0.000000E+00  1.071027E-09  0.000000E+00  0.000000E+00  0.000000E+00  0.000000E+00  0.000000E+00  0.000000E+00  0.000000E+00  0.000000E+00  1.215348E-01  0.000000E+00  0.000000E+00  1.215348E-01                                                                                                                                                                                                                                                                                                                                                                                                                                                                                              
  3.750000E+02  1.250000E+02 -4.725000E+03  2.047314E-07  0.000000E+00  0.000000E+00  2.047314E-07  1.071027E-09  0.000000E+00  0.000000E+00  1.071027E-09  0.000000E+00  0.000000E+00  0.000000E+00  0.000000E+00  0.000000E+00  0.000000E+00  0.000000E+00  0.000000E+00  1.215348E-01  0.000000E+00  0.000000E+00  1.215348E-01                                                                                                                                                                                                                                                                                                                                                                                                                                                                                              
  6.250000E+02  1.250000E+02 -4.725000E+03  2.047313E-07  2.408502E-20  0.000000E+00  2.047313E-07  1.071026E-09  1.259814E-22  0.000000E+00  1.071026E-09  0.000000E+00  0.000000E+00  0.000000E+00  0.000000E+00  0.000000E+00  0.000000E+00  0.000000E+00  0.000000E+00  1.215346E-01  1.400553E-14  0.000000E+00  1.215346E-01                                                                                                                                                                                                                                                                                                                                                                                                                                                                                              
  7.600000E+02  1.250000E+02 -4.725000E+03  2.047550E-07  2.408502E-20  0.000000E+00  2.047550E-07  1.071150E-09  1.259814E-22  0.000000E+00  1.071150E-09  0.000000E+00  0.000000E+00  0.000000E+00  0.000000E+00  0.000000E+00  0.000000E+00  0.000000E+00  0.000000E+00  1.215485E-01  1.400553E-14  0.000000E+00  1.215485E-01                                                                                                                                                                                                                                                                                                                                                                                                                                                                                              
  7.800000E+02  1.250000E+02 -4.725000E+03  2.047558E-07  0.000000E+00  0.000000E+00  2.047558E-07  1.071154E-09  0.000000E+00  0.000000E+00  1.071154E-09  0.000000E+00  0.000000E+00  0.000000E+00  0.000000E+00  0.000000E+00  0.000000E+00  0.000000E+00  0.000000E+00  1.215489E-01  0.000000E+00  0.000000E+00  1.215489E-01                                                                                                                                                                                                                                                                                                                                                                                                                                                                                              
  8.000000E+02  1.250000E+02 -4.725000E+03  2.047550E-07 -2.408502E-20  0.000000E+00  2.047550E-07  1.071150E-09 -1.259814E-22  0.000000E+00  1.071150E-09  0.000000E+00  0.000000E+00  0.000000E+00  0.000000E+00  0.000000E+00  0.000000E+00  0.000000E+00  0.000000E+00  1.215485E-01 -1.400553E-14  0.000000E+00  1.215485E-01                                                                                                                                                                                                                                                                                                                                                                                                                                                                                              
  9.350000E+02  1.250000E+02 -4.725000E+03  2.047317E-07 -2.408502E-20  0.000000E+00  2.047317E-07  1.071028E-09 -1.259814E-22  0.000000E+00  1.071028E-09  0.000000E+00  0.000000E+00  0.000000E+00  0.000000E+00  0.000000E+00  0.000000E+00  0.000000E+00  0.000000E+00  1.215349E-01 -1.400553E-14  0.000000E+00  1.215349E-01                                                                                                                                                                                                                                                                                                                                                                                                                                                                                              
  1.185000E+03  1.250000E+02 -4.725000E+03  2.047315E-07  0.000000E+00  0.000000E+00  2.047315E-07  1.071027E-09  0.000000E+00  0.000000E+00  1.071027E-09  0.000000E+00  0.000000E+00  0.000000E+00  0.000000E+00  0.000000E+00  0.000000E+00  0.000000E+00  0.000000E+00  1.215348E-01  0.000000E+00  0.000000E+00  1.215348E-01                                                                                                                                                                                                                                                                                                                                                                                                                                                                                              