Title="TOUGHREACT V3.30-OMP flowvector.tec: Liq & Gas Fluxes (kg/s/m^2), Pore Velocities (m/s), & Heat Fluxes (J/s/m2)"                                                                                                                                                                                                                                                                                                                                                                                                                                                                                                                                                                                                                                                                                                         
Variables= "X(m)"     "Y(m)"      "Z(m)"     "FluxLiq"   "FluxLiq_X"   "FluxLiq_Y"   "FluxLiq_Z"   "PorVelLiq"  "PorVelLiqX"  "PorVelLiqY"  "PorVelLiqZ"     "FluxGas"   "FluxGas_X"   "FluxGas_Y"   "FluxGas_Z"   "PorVelGas"  "PorVelGasX"  "PorVelGasY"  "PorVelGasZ"    "HeatFlux"  "HeatFlux_X"  "HeatFlux_Y"  "HeatFlux_Z"                                                                                                                                                                                                                                                                                                                                                                                                                                                                                                
Zone T= "2.30000000E+10 sec" I=     9 J=    10 K=    23 F=Point
  1.250000E+02  1.250000E+02 -5.425000E+03  9.200086E-07  2.910398E-08 -6.268070E-09 -9.195268E-07  1.953698E-09  6.220045E-11 -1.339547E-11 -1.952662E-09  0.000000E+00  0.000000E+00  0.000000E+00  0.000000E+00  0.000000E+00  0.000000E+00  0.000000E+00  0.000000E+00  8.180717E-01  2.747781E-02 -5.917935E-03 -8.175887E-01                                                                                                                                                                                                                                                                                                                                                                                                                                                                                              
  3.750000E+02  1.250000E+02 -5.425000E+03  8.919756E-07  4.049214E-08 -6.523477E-09 -8.910322E-07  1.894452E-09  8.654222E-11 -1.394316E-11 -1.892423E-09  0.000000E+00  0.000000E+00  0.000000E+00  0.000000E+00  0.000000E+00  0.000000E+00  0.000000E+00  0.000000E+00  7.923261E-01  3.823102E-02 -6.159860E-03 -7.913793E-01                                                                                                                                                                                                                                                                                                                                                                                                                                                                                              
  6.250000E+02  1.250000E+02 -5.425000E+03  8.707725E-07 -2.894993E-08 -6.921426E-09 -8.702636E-07  1.849579E-09 -6.187687E-11 -1.479471E-11 -1.848484E-09  0.000000E+00  0.000000E+00  0.000000E+00  0.000000E+00  0.000000E+00  0.000000E+00  0.000000E+00  0.000000E+00  7.730880E-01 -2.734107E-02 -6.536615E-03 -7.725767E-01                                                                                                                                                                                                                                                                                                                                                                                                                                                                                              
  7.600000E+02  1.250000E+02 -5.425000E+03  8.778899E-07 -8.435251E-08 -7.144127E-09 -8.737987E-07  1.864600E-09 -1.802932E-10 -1.526937E-11 -1.855800E-09  0.000000E+00  0.000000E+00  0.000000E+00  0.000000E+00  0.000000E+00  0.000000E+00  0.000000E+00  0.000000E+00  7.797611E-01 -7.966038E-02 -6.746858E-03 -7.756520E-01                                                                                                                                                                                                                                                                                                                                                                                                                                                                                              
  7.800000E+02  1.250000E+02 -5.425000E+03  8.793216E-07 -9.161232E-08 -7.177019E-09 -8.745068E-07  1.867631E-09 -1.958069E-10 -1.533946E-11 -1.857275E-09  0.000000E+00  0.000000E+00  0.000000E+00  0.000000E+00  0.000000E+00  0.000000E+00  0.000000E+00  0.000000E+00  7.811255E-01 -8.651674E-02 -6.777919E-03 -7.762899E-01                                                                                                                                                                                                                                                                                                                                                                                                                                                                                              
  8.000000E+02  1.250000E+02 -5.425000E+03  8.810157E-07 -9.865514E-08 -7.209821E-09 -8.754450E-07  1.871229E-09 -2.108473E-10 -1.540935E-11 -1.859248E-09  0.000000E+00  0.000000E+00  0.000000E+00  0.000000E+00  0.000000E+00  0.000000E+00  0.000000E+00  0.000000E+00  7.828044E-01 -9.316954E-02 -6.808958E-03 -7.772102E-01                                                                                                                                                                                                                                                                                                                                                                                                                                                                                              
  9.350000E+02  1.250000E+02 -5.425000E+03  8.926846E-07 -1.335887E-07 -7.430033E-09 -8.826011E-07  1.895933E-09 -2.854370E-10 -1.587830E-11 -1.874256E-09  0.000000E+00  0.000000E+00  0.000000E+00  0.000000E+00  0.000000E+00  0.000000E+00  0.000000E+00  0.000000E+00  7.940285E-01 -1.261538E-01 -7.017110E-03 -7.839115E-01                                                                                                                                                                                                                                                                                                                                                                                                                                                                                              
  1.185000E+03  1.250000E+02 -5.425000E+03  9.238319E-07 -1.488641E-07 -7.791566E-09 -9.117259E-07  1.961368E-09 -3.179967E-10 -1.664514E-11 -1.935347E-09  0.000000E+00  0.000000E+00  0.000000E+00  0.000000E+00  0.000000E+00  0.000000E+00  0.000000E+00  0.000000E+00  8.223828E-01 -1.405687E-01 -7.357747E-03 -8.102467E-01                                                                                                                                                                                                                                                                                                                                                                                                                                                                                              
  1.435000E+03  1.250000E+02 -5.425000E+03  9.445860E-07 -6.633271E-08 -8.022575E-09 -9.422199E-07  2.004588E-09 -1.416747E-10 -1.713390E-11 -1.999502E-09  0.000000E+00  0.000000E+00  0.000000E+00  0.000000E+00  0.000000E+00  0.000000E+00  0.000000E+00  0.000000E+00  8.407277E-01 -6.263383E-02 -7.575339E-03 -8.383571E-01                                                                                                                                                                                                                                                                                                                                                                                                                                                                                              
  1.250000E+02  1.250000E+02 -5.225000E+03  3.425973E-06  5.002999E-08 -5.515070E-09 -3.425603E-06  7.166398E-09  1.057953E-10 -1.166287E-11 -7.165607E-09  0.000000E+00  0.000000E+00  0.000000E+00  0.000000E+00  0.000000E+00  0.000000E+00  0.000000E+00  0.000000E+00  2.815872E+00  4.448370E-02 -4.903641E-03 -2.815516E+00                                                                                                                                                                                                                                                                                                                                                                                                                                                                                              
  3.750000E+02  1.250000E+02 -5.225000E+03  3.296253E-06  7.730019E-08 -5.811741E-09 -3.295341E-06  6.896183E-09  1.634677E-10 -1.229101E-11 -6.894234E-09  0.000000E+00  0.000000E+00  0.000000E+00  0.000000E+00  0.000000E+00  0.000000E+00  0.000000E+00  0.000000E+00  2.694808E+00  6.870401E-02 -5.161819E-03 -2.693927E+00                                                                                                                                                                                                                                                                                                                                                                                                                                                                                              
  6.250000E+02  1.250000E+02 -5.225000E+03  3.204908E-06 -1.646197E-08 -6.248915E-09 -3.204859E-06  6.706105E-09 -3.481280E-11 -1.321626E-11 -6.706001E-09  0.000000E+00  0.000000E+00  0.000000E+00  0.000000E+00  0.000000E+00  0.000000E+00  0.000000E+00  0.000000E+00  2.612913E+00 -1.459979E-02 -5.547619E-03 -2.612866E+00                                                                                                                                                                                                                                                                                                                                                                                                                                                                                              
  7.600000E+02  1.250000E+02 -5.225000E+03  3.219555E-06 -9.266027E-08 -6.468695E-09 -3.218215E-06  6.735866E-09 -1.959562E-10 -1.367957E-11 -6.733001E-09  0.000000E+00  0.000000E+00  0.000000E+00  0.000000E+00  0.000000E+00  0.000000E+00  0.000000E+00  0.000000E+00  2.624806E+00 -8.225301E-02 -5.742251E-03 -2.623510E+00                                                                                                                                                                                                                                                                                                                                                                                                                                                                                              
  7.800000E+02  1.250000E+02 -5.225000E+03  3.222817E-06 -1.029310E-07 -6.501015E-09 -3.221167E-06  6.742580E-09 -2.176728E-10 -1.374772E-11 -6.739052E-09  0.000000E+00  0.000000E+00  0.000000E+00  0.000000E+00  0.000000E+00  0.000000E+00  0.000000E+00  0.000000E+00  2.627711E+00 -9.137614E-02 -5.771011E-03 -2.626116E+00                                                                                                                                                                                                                                                                                                                                                                                                                                                                                              
  8.000000E+02  1.250000E+02 -5.225000E+03  3.227918E-06 -1.128453E-07 -6.533469E-09 -3.225938E-06  6.753272E-09 -2.386266E-10 -1.381630E-11 -6.749040E-09  0.000000E+00  0.000000E+00  0.000000E+00  0.000000E+00  0.000000E+00  0.000000E+00  0.000000E+00  0.000000E+00  2.633037E+00 -1.002060E-01 -5.800462E-03 -2.631123E+00                                                                                                                                                                                                                                                                                                                                                                                                                                                                                              
  9.350000E+02  1.250000E+02 -5.225000E+03  3.261953E-06 -1.605608E-07 -6.748727E-09 -3.257992E-06  6.823931E-09 -3.394395E-10 -1.427043E-11 -6.815468E-09  0.000000E+00  0.000000E+00  0.000000E+00  0.000000E+00  0.000000E+00  0.000000E+00  0.000000E+00  0.000000E+00  2.665409E+00 -1.426595E-01 -5.994174E-03 -2.661582E+00                                                                                                                                                                                                                                                                                                                                                                                                                                                                                              
  1.185000E+03  1.250000E+02 -5.225000E+03  3.380002E-06 -1.888164E-07 -7.105539E-09 -3.374717E-06  7.067631E-09 -3.990784E-10 -1.501965E-11 -7.056338E-09  0.000000E+00  0.000000E+00  0.000000E+00  0.000000E+00  0.000000E+00  0.000000E+00  0.000000E+00  0.000000E+00  2.771438E+00 -1.678937E-01 -6.314633E-03 -2.766340E+00                                                                                                                                                                                                                                                                                                                                                                                                                                                                                              
  1.435000E+03  1.250000E+02 -5.225000E+03  3.509630E-06 -8.709798E-08 -7.354250E-09 -3.508542E-06  7.336433E-09 -1.840636E-10 -1.554220E-11 -7.334107E-09  0.000000E+00  0.000000E+00  0.000000E+00  0.000000E+00  0.000000E+00  0.000000E+00  0.000000E+00  0.000000E+00  2.893764E+00 -7.749700E-02 -6.543512E-03 -2.892719E+00                                                                                                                                                                                                                                                                                                                                                                                                                                                                                              
  1.250000E+02  1.250000E+02 -4.975000E+03  6.753196E-06  1.299988E-07 -3.573851E-09 -6.751944E-06  1.369927E-08  2.683976E-10 -7.381419E-12 -1.369664E-08  0.000000E+00  0.000000E+00  0.000000E+00  0.000000E+00  0.000000E+00  0.000000E+00  0.000000E+00  0.000000E+00  4.705370E+00  1.036394E-01 -2.848974E-03 -4.704228E+00                                                                                                                                                                                                                                                                                                                                                                                                                                                                                              
  3.750000E+02  1.250000E+02 -4.975000E+03  6.376585E-06  2.158566E-07 -3.944053E-09 -6.372929E-06  1.293834E-08  4.456575E-10 -8.144255E-12 -1.293066E-08  0.000000E+00  0.000000E+00  0.000000E+00  0.000000E+00  0.000000E+00  0.000000E+00  0.000000E+00  0.000000E+00  4.364827E+00  1.715793E-01 -3.120921E-03 -4.361452E+00                                                                                                                                                                                                                                                                                                                                                                                                                                                                                              
  6.250000E+02  1.250000E+02 -4.975000E+03  6.132061E-06  2.788872E-08 -4.473937E-09 -6.131996E-06  1.244579E-08  5.757406E-11 -9.238257E-12 -1.244565E-08  0.000000E+00  0.000000E+00  0.000000E+00  0.000000E+00  0.000000E+00  0.000000E+00  0.000000E+00  0.000000E+00  4.156591E+00  2.224895E-02 -3.526812E-03 -4.156530E+00                                                                                                                                                                                                                                                                                                                                                                                                                                                                                              
  7.600000E+02  1.250000E+02 -4.975000E+03  6.159491E-06 -1.269533E-07 -4.717258E-09 -6.158181E-06  1.249935E-08 -2.621092E-10 -9.739160E-12 -1.249660E-08  0.000000E+00  0.000000E+00  0.000000E+00  0.000000E+00  0.000000E+00  0.000000E+00  0.000000E+00  0.000000E+00  4.177479E+00 -1.000698E-01 -3.718242E-03 -4.176279E+00                                                                                                                                                                                                                                                                                                                                                                                                                                                                                              
  7.800000E+02  1.250000E+02 -4.975000E+03  6.167572E-06 -1.487370E-07 -4.753232E-09 -6.165777E-06  1.251550E-08 -3.070805E-10 -9.813292E-12 -1.251173E-08  0.000000E+00  0.000000E+00  0.000000E+00  0.000000E+00  0.000000E+00  0.000000E+00  0.000000E+00  0.000000E+00  4.184357E+00 -1.172825E-01 -3.747003E-03 -4.182711E+00                                                                                                                                                                                                                                                                                                                                                                                                                                                                                              
  8.000000E+02  1.250000E+02 -4.975000E+03  6.184637E-06 -1.695549E-07 -4.790758E-09 -6.182311E-06  1.255031E-08 -3.500494E-10 -9.891083E-12 -1.254543E-08  0.000000E+00  0.000000E+00  0.000000E+00  0.000000E+00  0.000000E+00  0.000000E+00  0.000000E+00  0.000000E+00  4.200806E+00 -1.338894E-01 -3.778723E-03 -4.198670E+00                                                                                                                                                                                                                                                                                                                                                                                                                                                                                              
  9.350000E+02  1.250000E+02 -4.975000E+03  6.284443E-06 -2.587811E-07 -5.034053E-09 -6.279111E-06  1.275144E-08 -5.341089E-10 -1.039351E-11 -1.274025E-08  0.000000E+00  0.000000E+00  0.000000E+00  0.000000E+00  0.000000E+00  0.000000E+00  0.000000E+00  0.000000E+00  4.289642E+00 -2.051879E-01 -3.979228E-03 -4.284730E+00                                                                                                                                                                                                                                                                                                                                                                                                                                                                                              
  1.185000E+03  1.250000E+02 -4.975000E+03  6.548769E-06 -3.328683E-07 -5.472779E-09 -6.540302E-06  1.328190E-08 -6.869062E-10 -1.129625E-11 -1.326412E-08  0.000000E+00  0.000000E+00  0.000000E+00  0.000000E+00  0.000000E+00  0.000000E+00  0.000000E+00  0.000000E+00  4.524220E+00 -2.653969E-01 -4.346208E-03 -4.516427E+00                                                                                                                                                                                                                                                                                                                                                                                                                                                                                              
  1.435000E+03  1.250000E+02 -4.975000E+03  6.908226E-06 -1.638893E-07 -5.837468E-09 -6.906279E-06  1.400781E-08 -3.381897E-10 -1.205045E-11 -1.400372E-08  0.000000E+00  0.000000E+00  0.000000E+00  0.000000E+00  0.000000E+00  0.000000E+00  0.000000E+00  0.000000E+00  4.861883E+00 -1.311947E-01 -4.672640E-03 -4.860110E+00                                                                                                                                                                                                                                                                                                                                                                                                                                                                                              
  1.250000E+02  1.250000E+02 -4.725000E+03  1.045194E-05  2.320118E-07 -8.751663E-10 -1.044937E-05  2.028227E-08  4.576561E-10 -1.728147E-12 -2.027711E-08  0.000000E+00  0.000000E+00  0.000000E+00  0.000000E+00  0.000000E+00  0.000000E+00  0.000000E+00  0.000000E+00  5.553928E+00  1.478835E-01 -5.577443E-04 -5.551959E+00                                                                                                                                                                                                                                                                                                                                                                                                                                                                                              
  3.750000E+02  1.250000E+02 -4.725000E+03  9.592781E-06  3.904907E-07 -1.164233E-09 -9.584829E-06  1.859292E-08  7.701811E-10 -2.297173E-12 -1.857697E-08  0.000000E+00  0.000000E+00  0.000000E+00  0.000000E+00  0.000000E+00  0.000000E+00  0.000000E+00  0.000000E+00  4.838321E+00  2.460749E-01 -7.213087E-04 -4.832059E+00                                                                                                                                                                                                                                                                                                                                                                                                                                                                                              
  6.250000E+02  1.250000E+02 -4.725000E+03  9.088014E-06  9.360940E-08 -1.587853E-09 -9.087532E-06  1.760664E-08  1.845740E-10 -3.132464E-12 -1.760567E-08  0.000000E+00  0.000000E+00  0.000000E+00  0.000000E+00  0.000000E+00  0.000000E+00  0.000000E+00  0.000000E+00  4.448894E+00  5.858664E-02 -9.685622E-04 -4.448508E+00                                                                                                                                                                                                                                                                                                                                                                                                                                                                                              
  7.600000E+02  1.250000E+02 -4.725000E+03  9.077953E-06 -1.511492E-07 -1.807639E-09 -9.076695E-06  1.758829E-08 -2.981325E-10 -3.565510E-12 -1.758576E-08  0.000000E+00  0.000000E+00  0.000000E+00  0.000000E+00  0.000000E+00  0.000000E+00  0.000000E+00  0.000000E+00  4.452328E+00 -9.230829E-02 -1.103669E-03 -4.451371E+00                                                                                                                                                                                                                                                                                                                                                                                                                                                                                              
  7.800000E+02  1.250000E+02 -4.725000E+03  9.087704E-06 -1.941189E-07 -1.841823E-09 -9.085631E-06  1.760755E-08 -3.828935E-10 -3.632915E-12 -1.760339E-08  0.000000E+00  0.000000E+00  0.000000E+00  0.000000E+00  0.000000E+00  0.000000E+00  0.000000E+00  0.000000E+00  4.461018E+00 -1.186922E-01 -1.125121E-03 -4.459438E+00                                                                                                                                                                                                                                                                                                                                                                                                                                                                                              
  8.000000E+02  1.250000E+02 -4.725000E+03  9.107776E-06 -2.377413E-07 -1.880119E-09 -9.104672E-06  1.764813E-08 -4.689217E-10 -3.708726E-12 -1.764190E-08  0.000000E+00  0.000000E+00  0.000000E+00  0.000000E+00  0.000000E+00  0.000000E+00  0.000000E+00  0.000000E+00  4.479395E+00 -1.460872E-01 -1.150522E-03 -4.477012E+00                                                                                                                                                                                                                                                                                                                                                                                                                                                                                              
  9.350000E+02  1.250000E+02 -4.725000E+03  9.452510E-06 -3.400392E-07 -2.137299E-09 -9.446392E-06  1.831627E-08 -6.705499E-10 -4.216569E-12 -1.830399E-08  0.000000E+00  0.000000E+00  0.000000E+00  0.000000E+00  0.000000E+00  0.000000E+00  0.000000E+00  0.000000E+00  4.728430E+00 -2.120534E-01 -1.317878E-03 -4.723673E+00                                                                                                                                                                                                                                                                                                                                                                                                                                                                                              
  1.185000E+03  1.250000E+02 -4.725000E+03  9.859547E-06 -4.485550E-07 -2.638433E-09 -9.849338E-06  1.911913E-08 -8.846298E-10 -5.205701E-12 -1.909865E-08  0.000000E+00  0.000000E+00  0.000000E+00  0.000000E+00  0.000000E+00  0.000000E+00  0.000000E+00  0.000000E+00  5.091340E+00 -2.860902E-01 -1.656742E-03 -5.083296E+00                                                                                                                                                                                                                                                                                                                                                                                                                                                                                              