Title="TOUGHREACT V3.30-OMP flowvector.tec: Liq & Gas Fluxes (kg/s/m^2), Pore Velocities (m/s), & Heat Fluxes (J/s/m2)"                                                                                                                                                                                                                                                                                                                                                                                                                                                                                                                                                                                                                                                                                                         
Variables= "X(m)"     "Y(m)"      "Z(m)"     "FluxLiq"   "FluxLiq_X"   "FluxLiq_Y"   "FluxLiq_Z"   "PorVelLiq"  "PorVelLiqX"  "PorVelLiqY"  "PorVelLiqZ"     "FluxGas"   "FluxGas_X"   "FluxGas_Y"   "FluxGas_Z"   "PorVelGas"  "PorVelGasX"  "PorVelGasY"  "PorVelGasZ"    "HeatFlux"  "HeatFlux_X"  "HeatFlux_Y"  "HeatFlux_Z"                                                                                                                                                                                                                                                                                                                                                                                                                                                                                                
Zone T= "2.00000000E+10 sec" I=     9 J=    10 K=    23 F=Point
  1.250000E+02  1.250000E+02 -5.425000E+03  9.255173E-07  2.755724E-08 -5.515370E-09 -9.250905E-07  2.131713E-09  6.385601E-11 -1.277985E-11 -2.130718E-09  0.000000E+00  0.000000E+00  0.000000E+00  0.000000E+00  0.000000E+00  0.000000E+00  0.000000E+00  0.000000E+00  7.986630E-01  2.512366E-02 -5.028374E-03 -7.982519E-01                                                                                                                                                                                                                                                                                                                                                                                                                                                                                              
  3.750000E+02  1.250000E+02 -5.425000E+03  8.993947E-07  3.897428E-08 -5.743710E-09 -8.985315E-07  2.071840E-09  9.031498E-11 -1.331060E-11 -2.069828E-09  0.000000E+00  0.000000E+00  0.000000E+00  0.000000E+00  0.000000E+00  0.000000E+00  0.000000E+00  0.000000E+00  7.753879E-01  3.553358E-02 -5.237121E-03 -7.745556E-01                                                                                                                                                                                                                                                                                                                                                                                                                                                                                              
  6.250000E+02  1.250000E+02 -5.425000E+03  8.795944E-07 -2.498777E-08 -6.091891E-09 -8.792183E-07  2.026389E-09 -5.790720E-11 -1.411836E-11 -2.025512E-09  0.000000E+00  0.000000E+00  0.000000E+00  0.000000E+00  0.000000E+00  0.000000E+00  0.000000E+00  0.000000E+00  7.579191E-01 -2.278748E-02 -5.555283E-03 -7.575561E-01                                                                                                                                                                                                                                                                                                                                                                                                                                                                                              
  7.600000E+02  1.250000E+02 -5.425000E+03  8.857011E-07 -7.621927E-08 -6.280332E-09 -8.823931E-07  2.040350E-09 -1.766324E-10 -1.455392E-11 -2.032638E-09  0.000000E+00  0.000000E+00  0.000000E+00  0.000000E+00  0.000000E+00  0.000000E+00  0.000000E+00  0.000000E+00  7.634384E-01 -6.950404E-02 -5.727099E-03 -7.602464E-01                                                                                                                                                                                                                                                                                                                                                                                                                                                                                              
  7.800000E+02  1.250000E+02 -5.425000E+03  8.869440E-07 -8.295435E-08 -6.308113E-09 -8.830337E-07  2.043201E-09 -1.922375E-10 -1.461812E-11 -2.034085E-09  0.000000E+00  0.000000E+00  0.000000E+00  0.000000E+00  0.000000E+00  0.000000E+00  0.000000E+00  0.000000E+00  7.645795E-01 -7.564599E-02 -5.752434E-03 -7.608064E-01                                                                                                                                                                                                                                                                                                                                                                                                                                                                                              
  8.000000E+02  1.250000E+02 -5.425000E+03  8.884242E-07 -8.949282E-08 -6.335763E-09 -8.838826E-07  2.046607E-09 -2.073785E-10 -1.468200E-11 -2.036020E-09  0.000000E+00  0.000000E+00  0.000000E+00  0.000000E+00  0.000000E+00  0.000000E+00  0.000000E+00  0.000000E+00  7.659891E-01 -8.160972E-02 -5.777686E-03 -7.616073E-01                                                                                                                                                                                                                                                                                                                                                                                                                                                                                              
  9.350000E+02  1.250000E+02 -5.425000E+03  8.987940E-07 -1.220542E-07 -6.521157E-09 -8.904442E-07  2.070403E-09 -2.827679E-10 -1.511015E-11 -2.050947E-09  0.000000E+00  0.000000E+00  0.000000E+00  0.000000E+00  0.000000E+00  0.000000E+00  0.000000E+00  0.000000E+00  7.756329E-01 -1.112988E-01 -5.946895E-03 -7.675829E-01                                                                                                                                                                                                                                                                                                                                                                                                                                                                                              
  1.185000E+03  1.250000E+02 -5.425000E+03  9.273966E-07 -1.368251E-07 -6.825286E-09 -9.172223E-07  2.135580E-09 -3.169164E-10 -1.580987E-11 -2.111875E-09  0.000000E+00  0.000000E+00  0.000000E+00  0.000000E+00  0.000000E+00  0.000000E+00  0.000000E+00  0.000000E+00  8.009113E-01 -1.247610E-01 -6.223750E-03 -7.911099E-01                                                                                                                                                                                                                                                                                                                                                                                                                                                                                              
  1.435000E+03  1.250000E+02 -5.425000E+03  9.474939E-07 -6.112376E-08 -7.022440E-09 -9.454942E-07  2.181047E-09 -1.415557E-10 -1.626244E-11 -2.176387E-09  0.000000E+00  0.000000E+00  0.000000E+00  0.000000E+00  0.000000E+00  0.000000E+00  0.000000E+00  0.000000E+00  8.182911E-01 -5.573255E-02 -6.403142E-03 -8.163659E-01                                                                                                                                                                                                                                                                                                                                                                                                                                                                                              
  1.250000E+02  1.250000E+02 -5.225000E+03  3.441064E-06  4.710682E-08 -4.835272E-09 -3.440738E-06  7.814511E-09  1.080917E-10 -1.109548E-11 -7.813755E-09  0.000000E+00  0.000000E+00  0.000000E+00  0.000000E+00  0.000000E+00  0.000000E+00  0.000000E+00  0.000000E+00  2.770895E+00  4.064803E-02 -4.172277E-03 -2.770594E+00                                                                                                                                                                                                                                                                                                                                                                                                                                                                                              
  3.750000E+02  1.250000E+02 -5.225000E+03  3.320125E-06  7.325667E-08 -5.107490E-09 -3.319312E-06  7.540839E-09  1.681012E-10 -1.172089E-11 -7.538956E-09  0.000000E+00  0.000000E+00  0.000000E+00  0.000000E+00  0.000000E+00  0.000000E+00  0.000000E+00  0.000000E+00  2.659421E+00  6.318983E-02 -4.402815E-03 -2.658666E+00                                                                                                                                                                                                                                                                                                                                                                                                                                                                                              
  6.250000E+02  1.250000E+02 -5.225000E+03  3.235513E-06 -1.338932E-08 -5.496111E-09 -3.235481E-06  7.349546E-09 -3.072495E-11 -1.261331E-11 -7.349471E-09  0.000000E+00  0.000000E+00  0.000000E+00  0.000000E+00  0.000000E+00  0.000000E+00  0.000000E+00  0.000000E+00  2.584285E+00 -1.152410E-02 -4.735682E-03 -2.584255E+00                                                                                                                                                                                                                                                                                                                                                                                                                                                                                              
  7.600000E+02  1.250000E+02 -5.225000E+03  3.248364E-06 -8.391214E-08 -5.680147E-09 -3.247275E-06  7.377870E-09 -1.925591E-10 -1.303439E-11 -7.375345E-09  0.000000E+00  0.000000E+00  0.000000E+00  0.000000E+00  0.000000E+00  0.000000E+00  0.000000E+00  0.000000E+00  2.594472E+00 -7.229688E-02 -4.893952E-03 -2.593460E+00                                                                                                                                                                                                                                                                                                                                                                                                                                                                                              
  7.800000E+02  1.250000E+02 -5.225000E+03  3.251258E-06 -9.347279E-08 -5.707084E-09 -3.249909E-06  7.384334E-09 -2.144952E-10 -1.309603E-11 -7.381206E-09  0.000000E+00  0.000000E+00  0.000000E+00  0.000000E+00  0.000000E+00  0.000000E+00  0.000000E+00  0.000000E+00  2.596993E+00 -8.053839E-02 -4.917213E-03 -2.595739E+00                                                                                                                                                                                                                                                                                                                                                                                                                                                                                              
  8.000000E+02  1.250000E+02 -5.225000E+03  3.255821E-06 -1.027158E-07 -5.733949E-09 -3.254195E-06  7.394711E-09 -2.356942E-10 -1.315761E-11 -7.390942E-09  0.000000E+00  0.000000E+00  0.000000E+00  0.000000E+00  0.000000E+00  0.000000E+00  0.000000E+00  0.000000E+00  2.601659E+00 -8.852555E-02 -4.940802E-03 -2.600148E+00                                                                                                                                                                                                                                                                                                                                                                                                                                                                                              
  9.350000E+02  1.250000E+02 -5.225000E+03  3.287178E-06 -1.471516E-07 -5.911923E-09 -3.283878E-06  7.465476E-09 -3.375783E-10 -1.356510E-11 -7.457828E-09  0.000000E+00  0.000000E+00  0.000000E+00  0.000000E+00  0.000000E+00  0.000000E+00  0.000000E+00  0.000000E+00  2.631327E+00 -1.268933E-01 -5.096250E-03 -2.628260E+00                                                                                                                                                                                                                                                                                                                                                                                                                                                                                              
  1.185000E+03  1.250000E+02 -5.225000E+03  3.395478E-06 -1.740990E-07 -6.206452E-09 -3.391006E-06  7.708340E-09 -3.993099E-10 -1.423638E-11 -7.697978E-09  0.000000E+00  0.000000E+00  0.000000E+00  0.000000E+00  0.000000E+00  0.000000E+00  0.000000E+00  0.000000E+00  2.727239E+00 -1.502357E-01 -5.353070E-03 -2.723093E+00                                                                                                                                                                                                                                                                                                                                                                                                                                                                                              
  1.435000E+03  1.250000E+02 -5.225000E+03  3.516222E-06 -8.056332E-08 -6.417149E-09 -3.515293E-06  7.980333E-09 -1.847552E-10 -1.471680E-11 -7.978180E-09  0.000000E+00  0.000000E+00  0.000000E+00  0.000000E+00  0.000000E+00  0.000000E+00  0.000000E+00  0.000000E+00  2.839428E+00 -6.956060E-02 -5.540682E-03 -2.838570E+00                                                                                                                                                                                                                                                                                                                                                                                                                                                                                              
  1.250000E+02  1.250000E+02 -4.975000E+03  6.764880E-06  1.211478E-07 -3.112254E-09 -6.763794E-06  1.492449E-08  2.718762E-10 -6.987064E-12 -1.492201E-08  0.000000E+00  0.000000E+00  0.000000E+00  0.000000E+00  0.000000E+00  0.000000E+00  0.000000E+00  0.000000E+00  4.677791E+00  9.498343E-02 -2.439881E-03 -4.676826E+00                                                                                                                                                                                                                                                                                                                                                                                                                                                                                              
  3.750000E+02  1.250000E+02 -4.975000E+03  6.414189E-06  2.007670E-07 -3.462470E-09 -6.411045E-06  1.415189E-08  4.505422E-10 -7.771280E-12 -1.414471E-08  0.000000E+00  0.000000E+00  0.000000E+00  0.000000E+00  0.000000E+00  0.000000E+00  0.000000E+00  0.000000E+00  4.356449E+00  1.569516E-01 -2.694803E-03 -4.353620E+00                                                                                                                                                                                                                                                                                                                                                                                                                                                                                              
  6.250000E+02  1.250000E+02 -4.975000E+03  6.190602E-06  2.723822E-08 -3.945932E-09 -6.190541E-06  1.366066E-08  6.112139E-11 -8.855779E-12 -1.366052E-08  0.000000E+00  0.000000E+00  0.000000E+00  0.000000E+00  0.000000E+00  0.000000E+00  0.000000E+00  0.000000E+00  4.162442E+00  2.136338E-02 -3.059191E-03 -4.162386E+00                                                                                                                                                                                                                                                                                                                                                                                                                                                                                              
  7.600000E+02  1.250000E+02 -4.975000E+03  6.213261E-06 -1.149907E-07 -4.149898E-09 -6.212195E-06  1.370869E-08 -2.580386E-10 -9.312224E-12 -1.370626E-08  0.000000E+00  0.000000E+00  0.000000E+00  0.000000E+00  0.000000E+00  0.000000E+00  0.000000E+00  0.000000E+00  4.179581E+00 -8.914332E-02 -3.216995E-03 -4.178629E+00                                                                                                                                                                                                                                                                                                                                                                                                                                                                                              
  7.800000E+02  1.250000E+02 -4.975000E+03  6.220196E-06 -1.352455E-07 -4.179794E-09 -6.218724E-06  1.372377E-08 -3.034870E-10 -9.379189E-12 -1.372041E-08  0.000000E+00  0.000000E+00  0.000000E+00  0.000000E+00  0.000000E+00  0.000000E+00  0.000000E+00  0.000000E+00  4.185516E+00 -1.048787E-01 -3.240477E-03 -4.184200E+00                                                                                                                                                                                                                                                                                                                                                                                                                                                                                              
  8.000000E+02  1.250000E+02 -4.975000E+03  6.235277E-06 -1.546644E-07 -4.210612E-09 -6.233357E-06  1.375729E-08 -3.470550E-10 -9.448619E-12 -1.375291E-08  0.000000E+00  0.000000E+00  0.000000E+00  0.000000E+00  0.000000E+00  0.000000E+00  0.000000E+00  0.000000E+00  4.200203E+00 -1.201100E-01 -3.266020E-03 -4.198484E+00                                                                                                                                                                                                                                                                                                                                                                                                                                                                                              
  9.350000E+02  1.250000E+02 -4.975000E+03  6.328176E-06 -2.375331E-07 -4.410929E-09 -6.323715E-06  1.396169E-08 -5.328875E-10 -9.898555E-12 -1.395151E-08  0.000000E+00  0.000000E+00  0.000000E+00  0.000000E+00  0.000000E+00  0.000000E+00  0.000000E+00  0.000000E+00  4.285043E+00 -1.852162E-01 -3.429025E-03 -4.281037E+00                                                                                                                                                                                                                                                                                                                                                                                                                                                                                              
  1.185000E+03  1.250000E+02 -4.975000E+03  6.569214E-06 -3.077694E-07 -4.775703E-09 -6.561998E-06  1.448899E-08 -6.903757E-10 -1.071494E-11 -1.447253E-08  0.000000E+00  0.000000E+00  0.000000E+00  0.000000E+00  0.000000E+00  0.000000E+00  0.000000E+00  0.000000E+00  4.501507E+00 -2.412653E-01 -3.729473E-03 -4.495035E+00                                                                                                                                                                                                                                                                                                                                                                                                                                                                                              
  1.435000E+03  1.250000E+02 -4.975000E+03  6.904433E-06 -1.522649E-07 -5.093493E-09 -6.902752E-06  1.522688E-08 -3.415503E-10 -1.142969E-11 -1.522304E-08  0.000000E+00  0.000000E+00  0.000000E+00  0.000000E+00  0.000000E+00  0.000000E+00  0.000000E+00  0.000000E+00  4.818906E+00 -1.198190E-01 -4.007791E-03 -4.817414E+00                                                                                                                                                                                                                                                                                                                                                                                                                                                                                              
  1.250000E+02  1.250000E+02 -4.725000E+03  1.043547E-05  2.121021E-07 -8.054380E-10 -1.043332E-05  2.207017E-08  4.556450E-10 -1.732163E-12 -2.206547E-08  0.000000E+00  0.000000E+00  0.000000E+00  0.000000E+00  0.000000E+00  0.000000E+00  0.000000E+00  0.000000E+00  5.542412E+00  1.350299E-01 -5.126724E-04 -5.540767E+00                                                                                                                                                                                                                                                                                                                                                                                                                                                                                              
  3.750000E+02  1.250000E+02 -4.725000E+03  9.638469E-06  3.528021E-07 -1.063069E-09 -9.632010E-06  2.035502E-08  7.577568E-10 -2.283957E-12 -2.034091E-08  0.000000E+00  0.000000E+00  0.000000E+00  0.000000E+00  0.000000E+00  0.000000E+00  0.000000E+00  0.000000E+00  4.857052E+00  2.221068E-01 -6.578722E-04 -4.851971E+00                                                                                                                                                                                                                                                                                                                                                                                                                                                                                              
  6.250000E+02  1.250000E+02 -4.725000E+03  9.191223E-06  8.341515E-08 -1.434567E-09 -9.190845E-06  1.939669E-08  1.791001E-10 -3.080984E-12 -1.939586E-08  0.000000E+00  0.000000E+00  0.000000E+00  0.000000E+00  0.000000E+00  0.000000E+00  0.000000E+00  0.000000E+00  4.494754E+00  5.215472E-02 -8.739116E-04 -4.494452E+00                                                                                                                                                                                                                                                                                                                                                                                                                                                                                              
  7.600000E+02  1.250000E+02 -4.725000E+03  9.179435E-06 -1.335070E-07 -1.635204E-09 -9.178464E-06  1.937287E-08 -2.866891E-10 -3.511429E-12 -1.937074E-08  0.000000E+00  0.000000E+00  0.000000E+00  0.000000E+00  0.000000E+00  0.000000E+00  0.000000E+00  0.000000E+00  4.496322E+00 -8.141062E-02 -9.968912E-04 -4.495585E+00                                                                                                                                                                                                                                                                                                                                                                                                                                                                                              
  7.800000E+02  1.250000E+02 -4.725000E+03  9.187392E-06 -1.715222E-07 -1.666365E-09 -9.185790E-06  1.939012E-08 -3.683285E-10 -3.578337E-12 -1.938662E-08  0.000000E+00  0.000000E+00  0.000000E+00  0.000000E+00  0.000000E+00  0.000000E+00  0.000000E+00  0.000000E+00  4.503932E+00 -1.047075E-01 -1.016362E-03 -4.502714E+00                                                                                                                                                                                                                                                                                                                                                                                                                                                                                              
  8.000000E+02  1.250000E+02 -4.725000E+03  9.204435E-06 -2.101559E-07 -1.701084E-09 -9.202035E-06  1.942795E-08 -4.512960E-10 -3.653170E-12 -1.942271E-08  0.000000E+00  0.000000E+00  0.000000E+00  0.000000E+00  0.000000E+00  0.000000E+00  0.000000E+00  0.000000E+00  4.520388E+00 -1.289499E-01 -1.039221E-03 -4.518548E+00                                                                                                                                                                                                                                                                                                                                                                                                                                                                                              
  9.350000E+02  1.250000E+02 -4.725000E+03  9.510910E-06 -3.057580E-07 -1.938059E-09 -9.505994E-06  2.007946E-08 -6.565517E-10 -4.163056E-12 -2.006872E-08  0.000000E+00  0.000000E+00  0.000000E+00  0.000000E+00  0.000000E+00  0.000000E+00  0.000000E+00  0.000000E+00  4.753143E+00 -1.904145E-01 -1.193478E-03 -4.749328E+00                                                                                                                                                                                                                                                                                                                                                                                                                                                                                              
  1.185000E+03  1.250000E+02 -4.725000E+03  9.877922E-06 -4.120845E-07 -2.406652E-09 -9.869322E-06  2.087295E-08 -8.850960E-10 -5.170959E-12 -2.085417E-08  0.000000E+00  0.000000E+00  0.000000E+00  0.000000E+00  0.000000E+00  0.000000E+00  0.000000E+00  0.000000E+00  5.095031E+00 -2.623694E-01 -1.508711E-03 -5.088271E+00                                                                                                                                                                                                                                                                                                                                                                                                                                                                                              