Title="TOUGHREACT V3.30-OMP flowvector.tec: Liq & Gas Fluxes (kg/s/m^2), Pore Velocities (m/s), & Heat Fluxes (J/s/m2)"                                                                                                                                                                                                                                                                                                                                                                                                                                                                                                                                                                                                                                                                                                         
Variables= "X(m)"     "Y(m)"      "Z(m)"     "FluxLiq"   "FluxLiq_X"   "FluxLiq_Y"   "FluxLiq_Z"   "PorVelLiq"  "PorVelLiqX"  "PorVelLiqY"  "PorVelLiqZ"     "FluxGas"   "FluxGas_X"   "FluxGas_Y"   "FluxGas_Z"   "PorVelGas"  "PorVelGasX"  "PorVelGasY"  "PorVelGasZ"    "HeatFlux"  "HeatFlux_X"  "HeatFlux_Y"  "HeatFlux_Z"                                                                                                                                                                                                                                                                                                                                                                                                                                                                                                
Zone T= "2.66000000E+10 sec" I=     9 J=    10 K=    23 F=Point
  1.250000E+02  1.250000E+02 -5.425000E+03  9.129320E-07  3.218328E-08 -7.375573E-09 -9.123347E-07  1.773677E-09  6.295742E-11 -1.442753E-11 -1.772500E-09  0.000000E+00  0.000000E+00  0.000000E+00  0.000000E+00  0.000000E+00  0.000000E+00  0.000000E+00  0.000000E+00  8.384291E-01  3.158629E-02 -7.238891E-03 -8.378027E-01                                                                                                                                                                                                                                                                                                                                                                                                                                                                                              
  3.750000E+02  1.250000E+02 -5.425000E+03  8.814107E-07  4.409738E-08 -7.673047E-09 -8.802734E-07  1.712739E-09  8.626746E-11 -1.501170E-11 -1.710499E-09  0.000000E+00  0.000000E+00  0.000000E+00  0.000000E+00  0.000000E+00  0.000000E+00  0.000000E+00  0.000000E+00  8.086468E-01  4.328125E-02 -7.532066E-03 -8.074525E-01                                                                                                                                                                                                                                                                                                                                                                                                                                                                                              
  6.250000E+02  1.250000E+02 -5.425000E+03  8.572479E-07 -3.524535E-08 -8.148358E-09 -8.564843E-07  1.665965E-09 -6.895433E-11 -1.594281E-11 -1.664461E-09  0.000000E+00  0.000000E+00  0.000000E+00  0.000000E+00  0.000000E+00  0.000000E+00  0.000000E+00  0.000000E+00  7.861324E-01 -3.460509E-02 -8.000210E-03 -7.853296E-01                                                                                                                                                                                                                                                                                                                                                                                                                                                                                              
  7.600000E+02  1.250000E+02 -5.425000E+03  8.665068E-07 -9.848409E-08 -8.423450E-09 -8.608507E-07  1.683879E-09 -1.926753E-10 -1.647930E-11 -1.672738E-09  0.000000E+00  0.000000E+00  0.000000E+00  0.000000E+00  0.000000E+00  0.000000E+00  0.000000E+00  0.000000E+00  7.951873E-01 -9.668932E-02 -8.270131E-03 -7.892437E-01                                                                                                                                                                                                                                                                                                                                                                                                                                                                                              
  7.800000E+02  1.250000E+02 -5.425000E+03  8.683306E-07 -1.067036E-07 -8.464146E-09 -8.617081E-07  1.687418E-09 -2.087519E-10 -1.655864E-11 -1.674374E-09  0.000000E+00  0.000000E+00  0.000000E+00  0.000000E+00  0.000000E+00  0.000000E+00  0.000000E+00  0.000000E+00  7.969987E-01 -1.047597E-01 -8.310079E-03 -7.900401E-01                                                                                                                                                                                                                                                                                                                                                                                                                                                                                              
  8.000000E+02  1.250000E+02 -5.425000E+03  8.704549E-07 -1.146657E-07 -8.504806E-09 -8.628275E-07  1.691551E-09 -2.243133E-10 -1.663792E-11 -1.676530E-09  0.000000E+00  0.000000E+00  0.000000E+00  0.000000E+00  0.000000E+00  0.000000E+00  0.000000E+00  0.000000E+00  7.991873E-01 -1.125790E-01 -8.350099E-03 -7.911742E-01                                                                                                                                                                                                                                                                                                                                                                                                                                                                                              
  9.350000E+02  1.250000E+02 -5.425000E+03  8.847544E-07 -1.537338E-07 -8.777998E-09 -8.712515E-07  1.719269E-09 -3.006539E-10 -1.717021E-11 -1.692689E-09  0.000000E+00  0.000000E+00  0.000000E+00  0.000000E+00  0.000000E+00  0.000000E+00  0.000000E+00  0.000000E+00  8.134210E-01 -1.509237E-01 -8.618544E-03 -7.992506E-01                                                                                                                                                                                                                                                                                                                                                                                                                                                                                              
  1.185000E+03  1.250000E+02 -5.425000E+03  9.206287E-07 -1.695626E-07 -9.224077E-09 -9.048318E-07  1.788210E-09 -3.315146E-10 -1.803550E-11 -1.757120E-09  0.000000E+00  0.000000E+00  0.000000E+00  0.000000E+00  0.000000E+00  0.000000E+00  0.000000E+00  0.000000E+00  8.470561E-01 -1.664461E-01 -9.055105E-03 -8.304925E-01                                                                                                                                                                                                                                                                                                                                                                                                                                                                                              
  1.435000E+03  1.250000E+02 -5.425000E+03  9.420208E-07 -7.511552E-08 -9.503384E-09 -9.389731E-07  1.828816E-09 -1.468331E-10 -1.857575E-11 -1.822818E-09  0.000000E+00  0.000000E+00  0.000000E+00  0.000000E+00  0.000000E+00  0.000000E+00  0.000000E+00  0.000000E+00  8.661381E-01 -7.373104E-02 -9.328399E-03 -8.629437E-01                                                                                                                                                                                                                                                                                                                                                                                                                                                                                              
  1.250000E+02  1.250000E+02 -5.225000E+03  3.407162E-06  5.574404E-08 -6.512537E-09 -3.406699E-06  6.512873E-09  1.077837E-10 -1.259279E-11 -6.511969E-09  0.000000E+00  0.000000E+00  0.000000E+00  0.000000E+00  0.000000E+00  0.000000E+00  0.000000E+00  0.000000E+00  2.859914E+00  5.119010E-02 -5.980491E-03 -2.859450E+00                                                                                                                                                                                                                                                                                                                                                                                                                                                                                              
  3.750000E+02  1.250000E+02 -5.225000E+03  3.261245E-06  8.595428E-08 -6.848903E-09 -3.260105E-06  6.235549E-09  1.662041E-10 -1.324429E-11 -6.233319E-09  0.000000E+00  0.000000E+00  0.000000E+00  0.000000E+00  0.000000E+00  0.000000E+00  0.000000E+00  0.000000E+00  2.723444E+00  7.890119E-02 -6.282440E-03 -2.722294E+00                                                                                                                                                                                                                                                                                                                                                                                                                                                                                              
  6.250000E+02  1.250000E+02 -5.225000E+03  3.155275E-06 -2.111637E-08 -7.364041E-09 -3.155196E-06  6.034369E-09 -4.083257E-11 -1.424151E-11 -6.034214E-09  0.000000E+00  0.000000E+00  0.000000E+00  0.000000E+00  0.000000E+00  0.000000E+00  0.000000E+00  0.000000E+00  2.628559E+00 -1.934609E-02 -6.752480E-03 -2.628479E+00                                                                                                                                                                                                                                                                                                                                                                                                                                                                                              
  7.600000E+02  1.250000E+02 -5.225000E+03  3.174262E-06 -1.085361E-07 -7.639196E-09 -3.172397E-06  6.069704E-09 -2.098785E-10 -1.477168E-11 -6.066056E-09  0.000000E+00  0.000000E+00  0.000000E+00  0.000000E+00  0.000000E+00  0.000000E+00  0.000000E+00  0.000000E+00  2.644346E+00 -9.950862E-02 -7.003968E-03 -2.642464E+00                                                                                                                                                                                                                                                                                                                                                                                                                                                                                              
  7.800000E+02  1.250000E+02 -5.225000E+03  3.178349E-06 -1.201501E-07 -7.679836E-09 -3.176068E-06  6.077395E-09 -2.323317E-10 -1.485000E-11 -6.072934E-09  0.000000E+00  0.000000E+00  0.000000E+00  0.000000E+00  0.000000E+00  0.000000E+00  0.000000E+00  0.000000E+00  2.648039E+00 -1.101651E-01 -7.041321E-03 -2.645737E+00                                                                                                                                                                                                                                                                                                                                                                                                                                                                                              
  8.000000E+02  1.250000E+02 -5.225000E+03  3.184485E-06 -1.313341E-07 -7.720894E-09 -3.181766E-06  6.089137E-09 -2.539422E-10 -1.492935E-11 -6.083821E-09  0.000000E+00  0.000000E+00  0.000000E+00  0.000000E+00  0.000000E+00  0.000000E+00  0.000000E+00  0.000000E+00  2.654456E+00 -1.204552E-01 -7.079911E-03 -2.651712E+00                                                                                                                                                                                                                                                                                                                                                                                                                                                                                              
  9.350000E+02  1.250000E+02 -5.225000E+03  3.224598E-06 -1.847647E-07 -7.993247E-09 -3.219291E-06  6.165066E-09 -3.571439E-10 -1.545447E-11 -6.154693E-09  0.000000E+00  0.000000E+00  0.000000E+00  0.000000E+00  0.000000E+00  0.000000E+00  0.000000E+00  0.000000E+00  2.692234E+00 -1.695518E-01 -7.332806E-03 -2.686879E+00                                                                                                                                                                                                                                                                                                                                                                                                                                                                                              
  1.185000E+03  1.250000E+02 -5.225000E+03  3.361510E-06 -2.145120E-07 -8.441415E-09 -3.354648E-06  6.423049E-09 -4.145261E-10 -1.631411E-11 -6.409638E-09  0.000000E+00  0.000000E+00  0.000000E+00  0.000000E+00  0.000000E+00  0.000000E+00  0.000000E+00  0.000000E+00  2.815985E+00 -1.970046E-01 -7.747886E-03 -2.809074E+00                                                                                                                                                                                                                                                                                                                                                                                                                                                                                              
  1.435000E+03  1.250000E+02 -5.225000E+03  3.505313E-06 -9.814085E-08 -8.743451E-09 -3.503927E-06  6.695106E-09 -1.896183E-10 -1.689380E-11 -6.692398E-09  0.000000E+00  0.000000E+00  0.000000E+00  0.000000E+00  0.000000E+00  0.000000E+00  0.000000E+00  0.000000E+00  2.952653E+00 -9.019431E-02 -8.035440E-03 -2.951265E+00                                                                                                                                                                                                                                                                                                                                                                                                                                                                                              
  1.250000E+02  1.250000E+02 -4.975000E+03  6.743334E-06  1.479433E-07 -4.246128E-09 -6.741710E-06  1.247510E-08  2.787298E-10 -8.002674E-12 -1.247199E-08  0.000000E+00  0.000000E+00  0.000000E+00  0.000000E+00  0.000000E+00  0.000000E+00  0.000000E+00  0.000000E+00  4.732226E+00  1.199060E-01 -3.441223E-03 -4.730705E+00                                                                                                                                                                                                                                                                                                                                                                                                                                                                                              
  3.750000E+02  1.250000E+02 -4.975000E+03  6.318518E-06  2.485951E-07 -4.653959E-09 -6.313624E-06  1.169591E-08  4.683823E-10 -8.770505E-12 -1.168653E-08  0.000000E+00  0.000000E+00  0.000000E+00  0.000000E+00  0.000000E+00  0.000000E+00  0.000000E+00  0.000000E+00  4.359463E+00  2.008916E-01 -3.744645E-03 -4.354830E+00                                                                                                                                                                                                                                                                                                                                                                                                                                                                                              
  6.250000E+02  1.250000E+02 -4.975000E+03  6.023950E-06  3.074659E-08 -5.269215E-09 -6.023870E-06  1.115768E-08  5.792118E-11 -9.930983E-12 -1.115752E-08  0.000000E+00  0.000000E+00  0.000000E+00  0.000000E+00  0.000000E+00  0.000000E+00  0.000000E+00  0.000000E+00  4.119450E+00  2.494103E-02 -4.225185E-03 -4.119372E+00                                                                                                                                                                                                                                                                                                                                                                                                                                                                                              
  7.600000E+02  1.250000E+02 -4.975000E+03  6.064205E-06 -1.525179E-07 -5.577499E-09 -6.062284E-06  1.122954E-08 -2.874028E-10 -1.050998E-11 -1.122586E-08  0.000000E+00  0.000000E+00  0.000000E+00  0.000000E+00  0.000000E+00  0.000000E+00  0.000000E+00  0.000000E+00  4.149607E+00 -1.222851E-01 -4.471823E-03 -4.147802E+00                                                                                                                                                                                                                                                                                                                                                                                                                                                                                              
  7.800000E+02  1.250000E+02 -4.975000E+03  6.075031E-06 -1.775819E-07 -5.623421E-09 -6.072433E-06  1.124922E-08 -3.346274E-10 -1.059632E-11 -1.124424E-08  0.000000E+00  0.000000E+00  0.000000E+00  0.000000E+00  0.000000E+00  0.000000E+00  0.000000E+00  0.000000E+00  4.158520E+00 -1.424364E-01 -4.509179E-03 -4.156078E+00                                                                                                                                                                                                                                                                                                                                                                                                                                                                                              
  8.000000E+02  1.250000E+02 -4.975000E+03  6.096034E-06 -2.014072E-07 -5.671728E-09 -6.092703E-06  1.128811E-08 -3.794986E-10 -1.068767E-11 -1.128173E-08  0.000000E+00  0.000000E+00  0.000000E+00  0.000000E+00  0.000000E+00  0.000000E+00  0.000000E+00  0.000000E+00  4.178030E+00 -1.617633E-01 -4.550736E-03 -4.174895E+00                                                                                                                                                                                                                                                                                                                                                                                                                                                                                              
  9.350000E+02  1.250000E+02 -4.975000E+03  6.214445E-06 -3.017991E-07 -5.983647E-09 -6.207109E-06  1.150415E-08 -5.684311E-10 -1.127475E-11 -1.149009E-08  0.000000E+00  0.000000E+00  0.000000E+00  0.000000E+00  0.000000E+00  0.000000E+00  0.000000E+00  0.000000E+00  4.277213E+00 -2.433498E-01 -4.810405E-03 -4.270282E+00                                                                                                                                                                                                                                                                                                                                                                                                                                                                                              
  1.185000E+03  1.250000E+02 -4.975000E+03  6.525975E-06 -3.796909E-07 -6.532094E-09 -6.514917E-06  1.207190E-08 -7.149386E-10 -1.230294E-11 -1.205071E-08  0.000000E+00  0.000000E+00  0.000000E+00  0.000000E+00  0.000000E+00  0.000000E+00  0.000000E+00  0.000000E+00  4.545376E+00 -3.078591E-01 -5.275439E-03 -4.534936E+00                                                                                                                                                                                                                                                                                                                                                                                                                                                                                              
  1.435000E+03  1.250000E+02 -4.975000E+03  6.923454E-06 -1.843298E-07 -6.961096E-09 -6.920996E-06  1.280100E-08 -3.470503E-10 -1.311113E-11 -1.279628E-08  0.000000E+00  0.000000E+00  0.000000E+00  0.000000E+00  0.000000E+00  0.000000E+00  0.000000E+00  0.000000E+00  4.911230E+00 -1.500767E-01 -5.667329E-03 -4.908934E+00                                                                                                                                                                                                                                                                                                                                                                                                                                                                                              
  1.250000E+02  1.250000E+02 -4.725000E+03  1.050053E-05  2.781756E-07 -1.010920E-09 -1.049684E-05  1.853724E-08  4.996992E-10 -1.817778E-12 -1.853050E-08  0.000000E+00  0.000000E+00  0.000000E+00  0.000000E+00  0.000000E+00  0.000000E+00  0.000000E+00  0.000000E+00  5.584096E+00  1.774270E-01 -6.447115E-04 -5.581277E+00                                                                                                                                                                                                                                                                                                                                                                                                                                                                                              
  3.750000E+02  1.250000E+02 -4.725000E+03  9.522564E-06  4.864230E-07 -1.335989E-09 -9.510133E-06  1.680124E-08  8.738443E-10 -2.401479E-12 -1.677850E-08  0.000000E+00  0.000000E+00  0.000000E+00  0.000000E+00  0.000000E+00  0.000000E+00  0.000000E+00  0.000000E+00  4.810893E+00  3.065953E-01 -8.286432E-04 -4.801113E+00                                                                                                                                                                                                                                                                                                                                                                                                                                                                                              
  6.250000E+02  1.250000E+02 -4.725000E+03  8.853176E-06  1.209136E-07 -1.864385E-09 -8.852350E-06  1.562681E-08  2.171577E-10 -3.352154E-12 -1.562530E-08  0.000000E+00  0.000000E+00  0.000000E+00  0.000000E+00  0.000000E+00  0.000000E+00  0.000000E+00  0.000000E+00  4.344637E+00  7.574028E-02 -1.139281E-03 -4.343977E+00                                                                                                                                                                                                                                                                                                                                                                                                                                                                                              
  7.600000E+02  1.250000E+02 -4.725000E+03  8.848429E-06 -2.031283E-07 -2.136505E-09 -8.846097E-06  1.561960E-08 -3.651328E-10 -3.840557E-12 -1.561533E-08  0.000000E+00  0.000000E+00  0.000000E+00  0.000000E+00  0.000000E+00  0.000000E+00  0.000000E+00  0.000000E+00  4.352966E+00 -1.243078E-01 -1.307124E-03 -4.351190E+00                                                                                                                                                                                                                                                                                                                                                                                                                                                                                              
  7.800000E+02  1.250000E+02 -4.725000E+03  8.864294E-06 -2.601145E-07 -2.179006E-09 -8.860476E-06  1.564761E-08 -4.675689E-10 -3.916879E-12 -1.564062E-08  0.000000E+00  0.000000E+00  0.000000E+00  0.000000E+00  0.000000E+00  0.000000E+00  0.000000E+00  0.000000E+00  4.364975E+00 -1.593877E-01 -1.333891E-03 -4.362064E+00                                                                                                                                                                                                                                                                                                                                                                                                                                                                                              
  8.000000E+02  1.250000E+02 -4.725000E+03  8.893538E-06 -3.175200E-07 -2.226885E-09 -8.887868E-06  1.570032E-08 -5.706740E-10 -4.003181E-12 -1.568994E-08  0.000000E+00  0.000000E+00  0.000000E+00  0.000000E+00  0.000000E+00  0.000000E+00  0.000000E+00  0.000000E+00  4.388393E+00 -1.954444E-01 -1.365769E-03 -4.384039E+00                                                                                                                                                                                                                                                                                                                                                                                                                                                                                              
  9.350000E+02  1.250000E+02 -4.725000E+03  9.353653E-06 -4.297560E-07 -2.543542E-09 -9.343775E-06  1.650103E-08 -7.719821E-10 -4.571859E-12 -1.648296E-08  0.000000E+00  0.000000E+00  0.000000E+00  0.000000E+00  0.000000E+00  0.000000E+00  0.000000E+00  0.000000E+00  4.687461E+00 -2.682727E-01 -1.570472E-03 -4.679778E+00                                                                                                                                                                                                                                                                                                                                                                                                                                                                                              
  1.185000E+03  1.250000E+02 -4.725000E+03  9.846941E-06 -5.302766E-07 -3.124475E-09 -9.832652E-06  1.737659E-08 -9.523289E-10 -5.614468E-12 -1.735048E-08  0.000000E+00  0.000000E+00  0.000000E+00  0.000000E+00  0.000000E+00  0.000000E+00  0.000000E+00  0.000000E+00  5.094919E+00 -3.385750E-01 -1.964858E-03 -5.083656E+00                                                                                                                                                                                                                                                                                                                                                                                                                                                                                              