Title="TOUGHREACT V3.30-OMP flowvector.tec: Liq & Gas Fluxes (kg/s/m^2), Pore Velocities (m/s), & Heat Fluxes (J/s/m2)"                                                                                                                                                                                                                                                                                                                                                                                                                                                                                                                                                                                                                                                                                                         
Variables= "X(m)"     "Y(m)"      "Z(m)"     "FluxLiq"   "FluxLiq_X"   "FluxLiq_Y"   "FluxLiq_Z"   "PorVelLiq"  "PorVelLiqX"  "PorVelLiqY"  "PorVelLiqZ"     "FluxGas"   "FluxGas_X"   "FluxGas_Y"   "FluxGas_Z"   "PorVelGas"  "PorVelGasX"  "PorVelGasY"  "PorVelGasZ"    "HeatFlux"  "HeatFlux_X"  "HeatFlux_Y"  "HeatFlux_Z"                                                                                                                                                                                                                                                                                                                                                                                                                                                                                                
Zone T= "1.67000000E+10 sec" I=     9 J=    10 K=    23 F=Point
  1.250000E+02  1.250000E+02 -5.425000E+03  9.314890E-07  2.605922E-08 -4.747461E-09 -9.311123E-07  2.367042E-09  6.659824E-11 -1.213248E-11 -2.366074E-09  0.000000E+00  0.000000E+00  0.000000E+00  0.000000E+00  0.000000E+00  0.000000E+00  0.000000E+00  0.000000E+00  7.748553E-01  2.278846E-02 -4.151642E-03 -7.745090E-01                                                                                                                                                                                                                                                                                                                                                                                                                                                                                              
  3.750000E+02  1.250000E+02 -5.425000E+03  9.072556E-07  3.760019E-08 -4.947170E-09 -9.064627E-07  2.305783E-09  9.609627E-11 -1.264432E-11 -2.303745E-09  0.000000E+00  0.000000E+00  0.000000E+00  0.000000E+00  0.000000E+00  0.000000E+00  0.000000E+00  0.000000E+00  7.541091E-01  3.288182E-02 -4.326689E-03 -7.533795E-01                                                                                                                                                                                                                                                                                                                                                                                                                                                                                              
  6.250000E+02  1.250000E+02 -5.425000E+03  8.887381E-07 -2.098584E-08 -5.243147E-09 -8.884748E-07  2.258893E-09 -5.363724E-11 -1.340159E-11 -2.258217E-09  0.000000E+00  0.000000E+00  0.000000E+00  0.000000E+00  0.000000E+00  0.000000E+00  0.000000E+00  0.000000E+00  7.383655E-01 -1.835641E-02 -4.586005E-03 -7.381231E-01                                                                                                                                                                                                                                                                                                                                                                                                                                                                                              
  7.600000E+02  1.250000E+02 -5.425000E+03  8.939773E-07 -6.820222E-08 -5.395560E-09 -8.913555E-07  2.272093E-09 -1.743167E-10 -1.379019E-11 -2.265355E-09  0.000000E+00  0.000000E+00  0.000000E+00  0.000000E+00  0.000000E+00  0.000000E+00  0.000000E+00  0.000000E+00  7.429018E-01 -5.965352E-02 -4.719323E-03 -7.404878E-01                                                                                                                                                                                                                                                                                                                                                                                                                                                                                              
  7.800000E+02  1.250000E+02 -5.425000E+03  8.950548E-07 -7.442291E-08 -5.417966E-09 -8.919389E-07  2.274817E-09 -1.902135E-10 -1.384730E-11 -2.266809E-09  0.000000E+00  0.000000E+00  0.000000E+00  0.000000E+00  0.000000E+00  0.000000E+00  0.000000E+00  0.000000E+00  7.438479E-01 -6.509466E-02 -4.738923E-03 -7.409790E-01                                                                                                                                                                                                                                                                                                                                                                                                                                                                                              
  8.000000E+02  1.250000E+02 -5.425000E+03  8.963429E-07 -8.046564E-08 -5.440198E-09 -8.927073E-07  2.278082E-09 -2.056478E-10 -1.390395E-11 -2.268739E-09  0.000000E+00  0.000000E+00  0.000000E+00  0.000000E+00  0.000000E+00  0.000000E+00  0.000000E+00  0.000000E+00  7.450148E-01 -7.038088E-02 -4.758390E-03 -7.416676E-01                                                                                                                                                                                                                                                                                                                                                                                                                                                                                              
  9.350000E+02  1.250000E+02 -5.425000E+03  9.055387E-07 -1.106456E-07 -5.588932E-09 -8.987362E-07  2.301347E-09 -2.827214E-10 -1.428284E-11 -2.283870E-09  0.000000E+00  0.000000E+00  0.000000E+00  0.000000E+00  0.000000E+00  0.000000E+00  0.000000E+00  0.000000E+00  7.532099E-01 -9.677615E-02 -4.888584E-03 -7.469509E-01                                                                                                                                                                                                                                                                                                                                                                                                                                                                                              
  1.185000E+03  1.250000E+02 -5.425000E+03  9.317261E-07 -1.247423E-07 -5.831578E-09 -9.233195E-07  2.367179E-09 -3.186763E-10 -1.489872E-11 -2.345583E-09  0.000000E+00  0.000000E+00  0.000000E+00  0.000000E+00  0.000000E+00  0.000000E+00  0.000000E+00  0.000000E+00  7.754927E-01 -1.091013E-01 -5.100554E-03 -7.677629E-01                                                                                                                                                                                                                                                                                                                                                                                                                                                                                              
  1.435000E+03  1.250000E+02 -5.425000E+03  9.509235E-07 -5.581488E-08 -5.991829E-09 -9.492651E-07  2.415149E-09 -1.425706E-10 -1.530462E-11 -2.410889E-09  0.000000E+00  0.000000E+00  0.000000E+00  0.000000E+00  0.000000E+00  0.000000E+00  0.000000E+00  0.000000E+00  7.915417E-01 -4.881509E-02 -5.240456E-03 -7.900177E-01                                                                                                                                                                                                                                                                                                                                                                                                                                                                                              
  1.250000E+02  1.250000E+02 -5.225000E+03  3.457784E-06  4.429420E-08 -4.138858E-09 -3.457498E-06  8.672160E-09  1.121847E-10 -1.048286E-11 -8.671428E-09  0.000000E+00  0.000000E+00  0.000000E+00  0.000000E+00  0.000000E+00  0.000000E+00  0.000000E+00  0.000000E+00  2.711939E+00  3.684438E-02 -3.442720E-03 -2.711686E+00                                                                                                                                                                                                                                                                                                                                                                                                                                                                                              
  3.750000E+02  1.250000E+02 -5.225000E+03  3.345455E-06  6.954985E-08 -4.385532E-09 -3.344730E-06  8.391412E-09  1.761565E-10 -1.110848E-11 -8.389555E-09  0.000000E+00  0.000000E+00  0.000000E+00  0.000000E+00  0.000000E+00  0.000000E+00  0.000000E+00  0.000000E+00  2.610809E+00  5.783486E-02 -3.644925E-03 -2.610165E+00                                                                                                                                                                                                                                                                                                                                                                                                                                                                                              
  6.250000E+02  1.250000E+02 -5.225000E+03  3.266745E-06 -1.022699E-08 -4.723922E-09 -3.266725E-06  8.194815E-09 -2.590428E-11 -1.196621E-11 -8.194766E-09  0.000000E+00  0.000000E+00  0.000000E+00  0.000000E+00  0.000000E+00  0.000000E+00  0.000000E+00  0.000000E+00  2.542282E+00 -8.486488E-03 -3.924580E-03 -2.542264E+00                                                                                                                                                                                                                                                                                                                                                                                                                                                                                              
  7.600000E+02  1.250000E+02 -5.225000E+03  3.278203E-06 -7.544998E-08 -4.870495E-09 -3.277331E-06  8.222697E-09 -1.911098E-10 -1.233645E-11 -8.220466E-09  0.000000E+00  0.000000E+00  0.000000E+00  0.000000E+00  0.000000E+00  0.000000E+00  0.000000E+00  0.000000E+00  2.551091E+00 -6.267988E-02 -4.046187E-03 -2.550318E+00                                                                                                                                                                                                                                                                                                                                                                                                                                                                                              
  7.800000E+02  1.250000E+02 -5.225000E+03  3.280794E-06 -8.432406E-08 -4.891791E-09 -3.279706E-06  8.229083E-09 -2.135842E-10 -1.239024E-11 -8.226301E-09  0.000000E+00  0.000000E+00  0.000000E+00  0.000000E+00  0.000000E+00  0.000000E+00  0.000000E+00  0.000000E+00  2.553275E+00 -7.005479E-02 -4.063917E-03 -2.552310E+00                                                                                                                                                                                                                                                                                                                                                                                                                                                                                              
  8.000000E+02  1.250000E+02 -5.225000E+03  3.284851E-06 -9.291696E-08 -4.912817E-09 -3.283532E-06  8.239258E-09 -2.353387E-10 -1.244342E-11 -8.235887E-09  0.000000E+00  0.000000E+00  0.000000E+00  0.000000E+00  0.000000E+00  0.000000E+00  0.000000E+00  0.000000E+00  2.557274E+00 -7.721090E-02 -4.081655E-03 -2.556105E+00                                                                                                                                                                                                                                                                                                                                                                                                                                                                                              
  9.350000E+02  1.250000E+02 -5.225000E+03  3.313881E-06 -1.340922E-07 -5.051560E-09 -3.311163E-06  8.311669E-09 -3.395531E-10 -1.279404E-11 -8.304720E-09  0.000000E+00  0.000000E+00  0.000000E+00  0.000000E+00  0.000000E+00  0.000000E+00  0.000000E+00  0.000000E+00  2.584289E+00 -1.114810E-01 -4.198437E-03 -2.581880E+00                                                                                                                                                                                                                                                                                                                                                                                                                                                                                              
  1.185000E+03  1.250000E+02 -5.225000E+03  3.413256E-06 -1.594048E-07 -5.279103E-09 -3.409527E-06  8.557854E-09 -4.035675E-10 -1.336643E-11 -8.548323E-09  0.000000E+00  0.000000E+00  0.000000E+00  0.000000E+00  0.000000E+00  0.000000E+00  0.000000E+00  0.000000E+00  2.670246E+00 -1.326020E-01 -4.389676E-03 -2.666948E+00                                                                                                                                                                                                                                                                                                                                                                                                                                                                                              
  1.435000E+03  1.250000E+02 -5.225000E+03  3.524521E-06 -7.387282E-08 -5.448050E-09 -3.523743E-06  8.834697E-09 -1.870026E-10 -1.379150E-11 -8.832707E-09  0.000000E+00  0.000000E+00  0.000000E+00  0.000000E+00  0.000000E+00  0.000000E+00  0.000000E+00  0.000000E+00  2.770960E+00 -6.148001E-02 -4.534045E-03 -2.770275E+00                                                                                                                                                                                                                                                                                                                                                                                                                                                                                              
  1.250000E+02  1.250000E+02 -4.975000E+03  6.779146E-06  1.132820E-07 -2.626061E-09 -6.778198E-06  1.655012E-08  2.811338E-10 -6.519480E-12 -1.654773E-08  0.000000E+00  0.000000E+00  0.000000E+00  0.000000E+00  0.000000E+00  0.000000E+00  0.000000E+00  0.000000E+00  4.638459E+00  8.686213E-02 -2.013407E-03 -4.637645E+00                                                                                                                                                                                                                                                                                                                                                                                                                                                                                              
  3.750000E+02  1.250000E+02 -4.975000E+03  6.453222E-06  1.880025E-07 -2.958807E-09 -6.450483E-06  1.575388E-08  4.665515E-10 -7.343621E-12 -1.574697E-08  0.000000E+00  0.000000E+00  0.000000E+00  0.000000E+00  0.000000E+00  0.000000E+00  0.000000E+00  0.000000E+00  4.337821E+00  1.437632E-01 -2.253113E-03 -4.335438E+00                                                                                                                                                                                                                                                                                                                                                                                                                                                                                              
  6.250000E+02  1.250000E+02 -4.975000E+03  6.246433E-06  2.723996E-08 -3.399238E-09 -6.246373E-06  1.524998E-08  6.759550E-11 -8.435994E-12 -1.524982E-08  0.000000E+00  0.000000E+00  0.000000E+00  0.000000E+00  0.000000E+00  0.000000E+00  0.000000E+00  0.000000E+00  4.156481E+00  2.088572E-02 -2.578718E-03 -4.156428E+00                                                                                                                                                                                                                                                                                                                                                                                                                                                                                              
  7.600000E+02  1.250000E+02 -4.975000E+03  6.265736E-06 -1.045131E-07 -3.562291E-09 -6.264864E-06  1.529514E-08 -2.593436E-10 -8.839523E-12 -1.529294E-08  0.000000E+00  0.000000E+00  0.000000E+00  0.000000E+00  0.000000E+00  0.000000E+00  0.000000E+00  0.000000E+00  4.170707E+00 -7.927958E-02 -2.702127E-03 -4.169953E+00                                                                                                                                                                                                                                                                                                                                                                                                                                                                                              
  7.800000E+02  1.250000E+02 -4.975000E+03  6.271777E-06 -1.234485E-07 -3.585846E-09 -6.270561E-06  1.530968E-08 -3.063274E-10 -8.897866E-12 -1.530661E-08  0.000000E+00  0.000000E+00  0.000000E+00  0.000000E+00  0.000000E+00  0.000000E+00  0.000000E+00  0.000000E+00  4.175830E+00 -9.366838E-02 -2.720208E-03 -4.174779E+00                                                                                                                                                                                                                                                                                                                                                                                                                                                                                              
  8.000000E+02  1.250000E+02 -4.975000E+03  6.285043E-06 -1.416609E-07 -3.609642E-09 -6.283445E-06  1.534232E-08 -3.515149E-10 -8.957124E-12 -1.533829E-08  0.000000E+00  0.000000E+00  0.000000E+00  0.000000E+00  0.000000E+00  0.000000E+00  0.000000E+00  0.000000E+00  4.188745E+00 -1.076366E-01 -2.739426E-03 -4.187361E+00                                                                                                                                                                                                                                                                                                                                                                                                                                                                                              
  9.350000E+02  1.250000E+02 -4.975000E+03  6.372702E-06 -2.184861E-07 -3.764029E-09 -6.368955E-06  1.555644E-08 -5.420488E-10 -9.340814E-12 -1.554699E-08  0.000000E+00  0.000000E+00  0.000000E+00  0.000000E+00  0.000000E+00  0.000000E+00  0.000000E+00  0.000000E+00  4.270049E+00 -1.666527E-01 -2.862883E-03 -4.266795E+00                                                                                                                                                                                                                                                                                                                                                                                                                                                                                              
  1.185000E+03  1.250000E+02 -4.975000E+03  6.593556E-06 -2.839522E-07 -4.046973E-09 -6.587438E-06  1.609204E-08 -7.044016E-10 -1.004130E-11 -1.607661E-08  0.000000E+00  0.000000E+00  0.000000E+00  0.000000E+00  0.000000E+00  0.000000E+00  0.000000E+00  0.000000E+00  4.469125E+00 -2.176534E-01 -3.091164E-03 -4.463821E+00                                                                                                                                                                                                                                                                                                                                                                                                                                                                                              
  1.435000E+03  1.250000E+02 -4.975000E+03  6.902796E-06 -1.407111E-07 -4.311240E-09 -6.901360E-06  1.684665E-08 -3.490617E-10 -1.069861E-11 -1.684303E-08  0.000000E+00  0.000000E+00  0.000000E+00  0.000000E+00  0.000000E+00  0.000000E+00  0.000000E+00  0.000000E+00  4.762495E+00 -1.082333E-01 -3.315815E-03 -4.761264E+00                                                                                                                                                                                                                                                                                                                                                                                                                                                                                              
  1.250000E+02  1.250000E+02 -4.725000E+03  1.042582E-05  1.973487E-07 -7.461753E-10 -1.042395E-05  2.446014E-08  4.699646E-10 -1.778915E-12 -2.445563E-08  0.000000E+00  0.000000E+00  0.000000E+00  0.000000E+00  0.000000E+00  0.000000E+00  0.000000E+00  0.000000E+00  5.533012E+00  1.253427E-01 -4.738192E-04 -5.531592E+00                                                                                                                                                                                                                                                                                                                                                                                                                                                                                              
  3.750000E+02  1.250000E+02 -4.725000E+03  9.684435E-06  3.266436E-07 -9.612652E-10 -9.678925E-06  2.268411E-08  7.776676E-10 -2.289052E-12 -2.267078E-08  0.000000E+00  0.000000E+00  0.000000E+00  0.000000E+00  0.000000E+00  0.000000E+00  0.000000E+00  0.000000E+00  4.875896E+00  2.052180E-01 -5.937936E-04 -4.871575E+00                                                                                                                                                                                                                                                                                                                                                                                                                                                                                              
  6.250000E+02  1.250000E+02 -4.725000E+03  9.275979E-06  7.676573E-08 -1.286196E-09 -9.275662E-06  2.170885E-08  1.826942E-10 -3.061279E-12 -2.170808E-08  0.000000E+00  0.000000E+00  0.000000E+00  0.000000E+00  0.000000E+00  0.000000E+00  0.000000E+00  0.000000E+00  4.531823E+00  4.791378E-02 -7.821827E-04 -4.531569E+00                                                                                                                                                                                                                                                                                                                                                                                                                                                                                              
  7.600000E+02  1.250000E+02 -4.725000E+03  9.262822E-06 -1.224245E-07 -1.474325E-09 -9.262013E-06  2.167899E-08 -2.913453E-10 -3.508615E-12 -2.167703E-08  0.000000E+00  0.000000E+00  0.000000E+00  0.000000E+00  0.000000E+00  0.000000E+00  0.000000E+00  0.000000E+00  4.531844E+00 -7.450671E-02 -8.970717E-04 -4.531231E+00                                                                                                                                                                                                                                                                                                                                                                                                                                                                                              
  7.800000E+02  1.250000E+02 -4.725000E+03  9.269606E-06 -1.572788E-07 -1.503545E-09 -9.268272E-06  2.169537E-08 -3.742972E-10 -3.578149E-12 -2.169214E-08  0.000000E+00  0.000000E+00  0.000000E+00  0.000000E+00  0.000000E+00  0.000000E+00  0.000000E+00  0.000000E+00  4.538689E+00 -9.581373E-02 -9.152217E-04 -4.537677E+00                                                                                                                                                                                                                                                                                                                                                                                                                                                                                              
  8.000000E+02  1.250000E+02 -4.725000E+03  9.284431E-06 -1.926762E-07 -1.535909E-09 -9.282432E-06  2.173202E-08 -4.585572E-10 -3.655438E-12 -2.172718E-08  0.000000E+00  0.000000E+00  0.000000E+00  0.000000E+00  0.000000E+00  0.000000E+00  0.000000E+00  0.000000E+00  4.553572E+00 -1.179864E-01 -9.362885E-04 -4.552043E+00                                                                                                                                                                                                                                                                                                                                                                                                                                                                                              
  9.350000E+02  1.250000E+02 -4.725000E+03  9.566842E-06 -2.824218E-07 -1.761240E-09 -9.562673E-06  2.240114E-08 -6.721786E-10 -4.193053E-12 -2.239105E-08  0.000000E+00  0.000000E+00  0.000000E+00  0.000000E+00  0.000000E+00  0.000000E+00  0.000000E+00  0.000000E+00  4.776586E+00 -1.754825E-01 -1.082484E-03 -4.773361E+00                                                                                                                                                                                                                                                                                                                                                                                                                                                                                              
  1.185000E+03  1.250000E+02 -4.725000E+03  9.902608E-06 -3.834601E-07 -2.210005E-09 -9.895181E-06  2.320997E-08 -9.130027E-10 -5.263444E-12 -2.319201E-08  0.000000E+00  0.000000E+00  0.000000E+00  0.000000E+00  0.000000E+00  0.000000E+00  0.000000E+00  0.000000E+00  5.101700E+00 -2.433794E-01 -1.381820E-03 -5.095891E+00                                                                                                                                                                                                                                                                                                                                                                                                                                                                                              