Title="TOUGHREACT V3.30-OMP flowvector.tec: Liq & Gas Fluxes (kg/s/m^2), Pore Velocities (m/s), & Heat Fluxes (J/s/m2)"                                                                                                                                                                                                                                                                                                                                                                                                                                                                                                                                                                                                                                                                                                         
Variables= "X(m)"     "Y(m)"      "Z(m)"     "FluxLiq"   "FluxLiq_X"   "FluxLiq_Y"   "FluxLiq_Z"   "PorVelLiq"  "PorVelLiqX"  "PorVelLiqY"  "PorVelLiqZ"     "FluxGas"   "FluxGas_X"   "FluxGas_Y"   "FluxGas_Z"   "PorVelGas"  "PorVelGasX"  "PorVelGasY"  "PorVelGasZ"    "HeatFlux"  "HeatFlux_X"  "HeatFlux_Y"  "HeatFlux_Z"                                                                                                                                                                                                                                                                                                                                                                                                                                                                                                
Zone T= "1.67000000E+10 sec" I=     9 J=    10 K=    23 F=Point
  1.250000E+02  1.250000E+02 -5.425000E+03  3.706549E-09  2.970481E-11 -7.863928E-11  3.705595E-09  2.164813E-11  1.748044E-13 -4.627698E-13  2.164247E-11  0.000000E+00  0.000000E+00  0.000000E+00  0.000000E+00  0.000000E+00  0.000000E+00  0.000000E+00  0.000000E+00  4.061815E-03  3.255196E-05 -8.617675E-05  4.060770E-03                                                                                                                                                                                                                                                                                                                                                                                                                                                                                              
  3.750000E+02  1.250000E+02 -5.425000E+03  3.676715E-09  1.501897E-10 -8.493071E-11  3.672664E-09  2.147416E-11  8.838244E-13 -4.997932E-13  2.145015E-11  0.000000E+00  0.000000E+00  0.000000E+00  0.000000E+00  0.000000E+00  0.000000E+00  0.000000E+00  0.000000E+00  4.029124E-03  1.645852E-04 -9.307128E-05  4.024685E-03                                                                                                                                                                                                                                                                                                                                                                                                                                                                                              
  6.250000E+02  1.250000E+02 -5.425000E+03  3.674601E-09  3.823922E-10 -1.035207E-10  3.653184E-09  2.146337E-11  2.250271E-12 -6.091903E-13  2.133638E-11  0.000000E+00  0.000000E+00  0.000000E+00  0.000000E+00  0.000000E+00  0.000000E+00  0.000000E+00  0.000000E+00  4.026809E-03  4.190442E-04 -1.134432E-04  4.003339E-03                                                                                                                                                                                                                                                                                                                                                                                                                                                                                              
  7.600000E+02  1.250000E+02 -5.425000E+03  3.722845E-09  5.326151E-10 -1.216528E-10  3.682539E-09  2.174681E-11  3.134292E-12 -7.158928E-13  2.150784E-11  0.000000E+00  0.000000E+00  0.000000E+00  0.000000E+00  0.000000E+00  0.000000E+00  0.000000E+00  0.000000E+00  4.079676E-03  5.836659E-04 -1.333132E-04  4.035508E-03                                                                                                                                                                                                                                                                                                                                                                                                                                                                                              
  7.800000E+02  1.250000E+02 -5.425000E+03  3.730172E-09  5.497912E-10 -1.244210E-10  3.687334E-09  2.178982E-11  3.235369E-12 -7.321830E-13  2.153585E-11  0.000000E+00  0.000000E+00  0.000000E+00  0.000000E+00  0.000000E+00  0.000000E+00  0.000000E+00  0.000000E+00  4.087706E-03  6.024882E-04 -1.363467E-04  4.040762E-03                                                                                                                                                                                                                                                                                                                                                                                                                                                                                              
  8.000000E+02  1.250000E+02 -5.425000E+03  3.737871E-09  5.660755E-10 -1.272687E-10  3.692565E-09  2.183500E-11  3.331198E-12 -7.489409E-13  2.156640E-11  0.000000E+00  0.000000E+00  0.000000E+00  0.000000E+00  0.000000E+00  0.000000E+00  0.000000E+00  0.000000E+00  4.096142E-03  6.203333E-04 -1.394674E-04  4.046494E-03                                                                                                                                                                                                                                                                                                                                                                                                                                                                                              
  9.350000E+02  1.250000E+02 -5.425000E+03  3.785970E-09  6.285917E-10 -1.469972E-10  3.730527E-09  2.211682E-11  3.699089E-12 -8.650378E-13  2.178812E-11  0.000000E+00  0.000000E+00  0.000000E+00  0.000000E+00  0.000000E+00  0.000000E+00  0.000000E+00  0.000000E+00  4.148850E-03  6.888415E-04 -1.610868E-04  4.088093E-03                                                                                                                                                                                                                                                                                                                                                                                                                                                                                              
  1.185000E+03  1.250000E+02 -5.425000E+03  3.893355E-09  5.925708E-10 -1.909362E-10  3.843256E-09  2.274356E-11  3.487117E-12 -1.123608E-12  2.244654E-11  0.000000E+00  0.000000E+00  0.000000E+00  0.000000E+00  0.000000E+00  0.000000E+00  0.000000E+00  0.000000E+00  4.266525E-03  6.493677E-04 -2.092372E-04  4.211624E-03                                                                                                                                                                                                                                                                                                                                                                                                                                                                                              
  1.435000E+03  1.250000E+02 -5.425000E+03  3.970493E-09  2.509712E-10 -2.202686E-10  3.956426E-09  2.319093E-11  1.476898E-12 -1.296221E-12  2.310753E-11  0.000000E+00  0.000000E+00  0.000000E+00  0.000000E+00  0.000000E+00  0.000000E+00  0.000000E+00  0.000000E+00  4.351054E-03  2.750262E-04 -2.413808E-04  4.335639E-03                                                                                                                                                                                                                                                                                                                                                                                                                                                                                              
  1.250000E+02  1.250000E+02 -5.225000E+03  7.672011E-09  2.969942E-12 -9.776401E-11  7.671388E-09  4.447510E-11  1.720290E-14 -5.662819E-13  4.447149E-11  0.000000E+00  0.000000E+00  0.000000E+00  0.000000E+00  0.000000E+00  0.000000E+00  0.000000E+00  0.000000E+00  8.192116E-03  3.093448E-06 -1.018296E-04  8.191482E-03                                                                                                                                                                                                                                                                                                                                                                                                                                                                                              
  3.750000E+02  1.250000E+02 -5.225000E+03  7.517439E-09  1.045344E-10 -1.040012E-10  7.515993E-09  4.358257E-11  6.054984E-13 -6.024101E-13  4.357420E-11  0.000000E+00  0.000000E+00  0.000000E+00  0.000000E+00  0.000000E+00  0.000000E+00  0.000000E+00  0.000000E+00  8.029312E-03  1.088816E-04 -1.083264E-04  8.027843E-03                                                                                                                                                                                                                                                                                                                                                                                                                                                                                              
  6.250000E+02  1.250000E+02 -5.225000E+03  7.415927E-09  3.986553E-10 -1.285045E-10  7.404089E-09  4.299691E-11  2.309147E-12 -7.443419E-13  4.292841E-11  0.000000E+00  0.000000E+00  0.000000E+00  0.000000E+00  0.000000E+00  0.000000E+00  0.000000E+00  0.000000E+00  7.922256E-03  4.152341E-04 -1.338489E-04  7.910235E-03                                                                                                                                                                                                                                                                                                                                                                                                                                                                                              
  7.600000E+02  1.250000E+02 -5.225000E+03  7.547900E-09  6.070582E-10 -1.535007E-10  7.521882E-09  4.375953E-11  3.516288E-12 -8.891284E-13  4.360896E-11  0.000000E+00  0.000000E+00  0.000000E+00  0.000000E+00  0.000000E+00  0.000000E+00  0.000000E+00  0.000000E+00  8.060945E-03  6.323040E-04 -1.598845E-04  8.034517E-03                                                                                                                                                                                                                                                                                                                                                                                                                                                                                              
  7.800000E+02  1.250000E+02 -5.225000E+03  7.569936E-09  6.322844E-10 -1.573603E-10  7.541842E-09  4.388684E-11  3.662408E-12 -9.114847E-13  4.372426E-11  0.000000E+00  0.000000E+00  0.000000E+00  0.000000E+00  0.000000E+00  0.000000E+00  0.000000E+00  0.000000E+00  8.084104E-03  6.585792E-04 -1.639047E-04  8.055567E-03                                                                                                                                                                                                                                                                                                                                                                                                                                                                                              
  8.000000E+02  1.250000E+02 -5.225000E+03  7.595935E-09  6.562181E-10 -1.613754E-10  7.565815E-09  4.403702E-11  3.801040E-12 -9.347415E-13  4.386272E-11  0.000000E+00  0.000000E+00  0.000000E+00  0.000000E+00  0.000000E+00  0.000000E+00  0.000000E+00  0.000000E+00  8.111418E-03  6.835081E-04 -1.680867E-04  8.080820E-03                                                                                                                                                                                                                                                                                                                                                                                                                                                                                              
  9.350000E+02  1.250000E+02 -5.225000E+03  7.767258E-09  7.535683E-10 -1.894261E-10  7.728296E-09  4.502675E-11  4.364928E-12 -1.097221E-12  4.480124E-11  0.000000E+00  0.000000E+00  0.000000E+00  0.000000E+00  0.000000E+00  0.000000E+00  0.000000E+00  0.000000E+00  8.291707E-03  7.849067E-04 -1.973039E-04  8.252115E-03                                                                                                                                                                                                                                                                                                                                                                                                                                                                                              
  1.185000E+03  1.250000E+02 -5.225000E+03  8.232637E-09  7.510932E-10 -2.571658E-10  8.194269E-09  4.771526E-11  4.350595E-12 -1.489594E-12  4.749315E-11  0.000000E+00  0.000000E+00  0.000000E+00  0.000000E+00  0.000000E+00  0.000000E+00  0.000000E+00  0.000000E+00  8.782595E-03  7.823286E-04 -2.678604E-04  8.743580E-03                                                                                                                                                                                                                                                                                                                                                                                                                                                                                              
  1.435000E+03  1.250000E+02 -5.225000E+03  8.717702E-09  3.314260E-10 -3.004972E-10  8.706216E-09  5.051628E-11  1.919737E-12 -1.740587E-12  5.044977E-11  0.000000E+00  0.000000E+00  0.000000E+00  0.000000E+00  0.000000E+00  0.000000E+00  0.000000E+00  0.000000E+00  9.294648E-03  3.452088E-04 -3.129939E-04  9.282960E-03                                                                                                                                                                                                                                                                                                                                                                                                                                                                                              
  1.250000E+02  1.250000E+02 -4.975000E+03  8.399834E-09 -1.148897E-10 -1.872018E-10  8.396962E-09  4.800726E-11 -6.566201E-13 -1.069899E-12  4.799085E-11  0.000000E+00  0.000000E+00  0.000000E+00  0.000000E+00  0.000000E+00  0.000000E+00  0.000000E+00  0.000000E+00  8.533570E-03 -1.140831E-04 -1.858876E-04  8.530782E-03                                                                                                                                                                                                                                                                                                                                                                                                                                                                                              
  3.750000E+02  1.250000E+02 -4.975000E+03  7.918688E-09 -1.050847E-10 -1.903309E-10  7.915703E-09  4.526389E-11 -6.005822E-13 -1.087782E-12  4.524683E-11  0.000000E+00  0.000000E+00  0.000000E+00  0.000000E+00  0.000000E+00  0.000000E+00  0.000000E+00  0.000000E+00  8.049837E-03 -1.043469E-04 -1.889948E-04  8.046942E-03                                                                                                                                                                                                                                                                                                                                                                                                                                                                                              
  6.250000E+02  1.250000E+02 -4.975000E+03  7.489572E-09  4.578548E-10 -2.450522E-10  7.471546E-09  4.281866E-11  2.616739E-12 -1.400525E-12  4.271567E-11  0.000000E+00  0.000000E+00  0.000000E+00  0.000000E+00  0.000000E+00  0.000000E+00  0.000000E+00  0.000000E+00  7.618877E-03  4.546394E-04 -2.433310E-04  7.601407E-03                                                                                                                                                                                                                                                                                                                                                                                                                                                                                              
  7.600000E+02  1.250000E+02 -4.975000E+03  7.729481E-09  9.339017E-10 -2.985280E-10  7.667045E-09  4.418936E-11  5.337450E-12 -1.706152E-12  4.383264E-11  0.000000E+00  0.000000E+00  0.000000E+00  0.000000E+00  0.000000E+00  0.000000E+00  0.000000E+00  0.000000E+00  7.860353E-03  9.273427E-04 -2.964316E-04  7.799828E-03                                                                                                                                                                                                                                                                                                                                                                                                                                                                                              
  7.800000E+02  1.250000E+02 -4.975000E+03  7.775850E-09  1.009693E-09 -3.074667E-10  7.703884E-09  4.445416E-11  5.770618E-12 -1.757238E-12  4.404298E-11  0.000000E+00  0.000000E+00  0.000000E+00  0.000000E+00  0.000000E+00  0.000000E+00  0.000000E+00  0.000000E+00  7.906912E-03  1.002601E-03 -3.053075E-04  7.837144E-03                                                                                                                                                                                                                                                                                                                                                                                                                                                                                              
  8.000000E+02  1.250000E+02 -4.975000E+03  8.005262E-09  1.071634E-09 -3.175576E-10  7.926852E-09  4.575978E-11  6.124626E-12 -1.814911E-12  4.531172E-11  0.000000E+00  0.000000E+00  0.000000E+00  0.000000E+00  0.000000E+00  0.000000E+00  0.000000E+00  0.000000E+00  8.135528E-03  1.064109E-03 -3.153277E-04  8.059470E-03                                                                                                                                                                                                                                                                                                                                                                                                                                                                                              
  9.350000E+02  1.250000E+02 -4.975000E+03  8.452936E-09  1.295531E-09 -3.869582E-10  8.344099E-09  4.831332E-11  7.404260E-12 -2.211553E-12  4.769133E-11  0.000000E+00  0.000000E+00  0.000000E+00  0.000000E+00  0.000000E+00  0.000000E+00  0.000000E+00  0.000000E+00  8.585466E-03  1.286436E-03 -3.842417E-04  8.479839E-03                                                                                                                                                                                                                                                                                                                                                                                                                                                                                              
  1.185000E+03  1.250000E+02 -4.975000E+03  9.612317E-09  1.451623E-09 -5.788813E-10  9.484425E-09  5.492739E-11  8.296384E-12 -3.308445E-12  5.419634E-11  0.000000E+00  0.000000E+00  0.000000E+00  0.000000E+00  0.000000E+00  0.000000E+00  0.000000E+00  0.000000E+00  9.753595E-03  1.441435E-03 -5.748179E-04  9.629354E-03                                                                                                                                                                                                                                                                                                                                                                                                                                                                                              
  1.435000E+03  1.250000E+02 -4.975000E+03  1.108772E-08  7.038843E-10 -6.827554E-10  1.104428E-08  6.333757E-11  4.022881E-12 -3.902124E-12  6.308912E-11  0.000000E+00  0.000000E+00  0.000000E+00  0.000000E+00  0.000000E+00  0.000000E+00  0.000000E+00  0.000000E+00  1.123996E-02  6.989460E-04 -6.779658E-04  1.119770E-02                                                                                                                                                                                                                                                                                                                                                                                                                                                                                              
  1.250000E+02  1.250000E+02 -4.725000E+03  9.563986E-09 -2.547958E-10 -2.764384E-10  9.556594E-09  5.244970E-11 -1.436153E-12 -1.558152E-12  5.240687E-11  0.000000E+00  0.000000E+00  0.000000E+00  0.000000E+00  0.000000E+00  0.000000E+00  0.000000E+00  0.000000E+00  9.229159E-03 -2.395969E-04 -2.599632E-04  9.222385E-03                                                                                                                                                                                                                                                                                                                                                                                                                                                                                              
  3.750000E+02  1.250000E+02 -4.725000E+03  8.383008E-09 -3.189631E-10 -2.545742E-10  8.373069E-09  4.603428E-11 -1.797773E-12 -1.434718E-12  4.597678E-11  0.000000E+00  0.000000E+00  0.000000E+00  0.000000E+00  0.000000E+00  0.000000E+00  0.000000E+00  0.000000E+00  8.097031E-03 -2.998932E-04 -2.392780E-04  8.087937E-03                                                                                                                                                                                                                                                                                                                                                                                                                                                                                              
  6.250000E+02  1.250000E+02 -4.725000E+03  7.208989E-09  5.543860E-10 -2.601730E-10  7.182931E-09  3.966860E-11  3.123963E-12 -1.465915E-12  3.951822E-11  0.000000E+00  0.000000E+00  0.000000E+00  0.000000E+00  0.000000E+00  0.000000E+00  0.000000E+00  0.000000E+00  6.971715E-03  5.209417E-04 -2.442455E-04  6.947933E-03                                                                                                                                                                                                                                                                                                                                                                                                                                                                                              
  7.600000E+02  1.250000E+02 -4.725000E+03  6.787204E-09  1.366859E-09 -4.371217E-10  6.633759E-09  3.752138E-11  7.702337E-12 -2.463040E-12  3.663961E-11  0.000000E+00  0.000000E+00  0.000000E+00  0.000000E+00  0.000000E+00  0.000000E+00  0.000000E+00  0.000000E+00  6.577318E-03  1.284407E-03 -4.105295E-04  6.437615E-03                                                                                                                                                                                                                                                                                                                                                                                                                                                                                              
  7.800000E+02  1.250000E+02 -4.725000E+03  6.733042E-09  1.642226E-09 -4.711246E-10  6.512680E-09  3.726916E-11  9.254341E-12 -2.654660E-12  3.600417E-11  0.000000E+00  0.000000E+00  0.000000E+00  0.000000E+00  0.000000E+00  0.000000E+00  0.000000E+00  0.000000E+00  6.525532E-03  1.543164E-03 -4.424991E-04  6.324983E-03                                                                                                                                                                                                                                                                                                                                                                                                                                                                                              
  8.000000E+02  1.250000E+02 -4.725000E+03  8.960810E-09  1.789360E-09 -5.140987E-10  8.765273E-09  4.919189E-11  1.008417E-11 -2.897011E-12  4.805995E-11  0.000000E+00  0.000000E+00  0.000000E+00  0.000000E+00  0.000000E+00  0.000000E+00  0.000000E+00  0.000000E+00  8.633735E-03  1.681795E-03 -4.829080E-04  8.454570E-03                                                                                                                                                                                                                                                                                                                                                                                                                                                                                              
  9.350000E+02  1.250000E+02 -4.725000E+03  9.567285E-09  2.141161E-09 -7.868226E-10  9.291356E-09  5.256727E-11  1.206810E-11 -4.434283E-12  5.097074E-11  0.000000E+00  0.000000E+00  0.000000E+00  0.000000E+00  0.000000E+00  0.000000E+00  0.000000E+00  0.000000E+00  9.218623E-03  2.013165E-03 -7.394931E-04  8.965675E-03                                                                                                                                                                                                                                                                                                                                                                                                                                                                                              
  1.185000E+03  1.250000E+02 -4.725000E+03  1.191545E-08  2.729925E-09 -1.335019E-09  1.152142E-08  6.542827E-11  1.538884E-11 -7.524670E-12  6.314603E-11  0.000000E+00  0.000000E+00  0.000000E+00  0.000000E+00  0.000000E+00  0.000000E+00  0.000000E+00  0.000000E+00  1.146971E-02  2.567854E-03 -1.255101E-03  1.110789E-02                                                                                                                                                                                                                                                                                                                                                                                                                                                                                              