Title="TOUGHREACT V3.30-OMP flowvector.tec: Liq & Gas Fluxes (kg/s/m^2), Pore Velocities (m/s), & Heat Fluxes (J/s/m2)"                                                                                                                                                                                                                                                                                                                                                                                                                                                                                                                                                                                                                                                                                                         
Variables= "X(m)"     "Y(m)"      "Z(m)"     "FluxLiq"   "FluxLiq_X"   "FluxLiq_Y"   "FluxLiq_Z"   "PorVelLiq"  "PorVelLiqX"  "PorVelLiqY"  "PorVelLiqZ"     "FluxGas"   "FluxGas_X"   "FluxGas_Y"   "FluxGas_Z"   "PorVelGas"  "PorVelGasX"  "PorVelGasY"  "PorVelGasZ"    "HeatFlux"  "HeatFlux_X"  "HeatFlux_Y"  "HeatFlux_Z"                                                                                                                                                                                                                                                                                                                                                                                                                                                                                                
Zone T= "6.00000000E+10 sec" I=     9 J=    10 K=    23 F=Point
  1.250000E+02  1.250000E+02 -5.425000E+03  3.763385E-09 -1.504500E-11 -4.082620E-11  3.763134E-09  2.211688E-11 -8.965888E-14 -2.432989E-13  2.211536E-11  0.000000E+00  0.000000E+00  0.000000E+00  0.000000E+00  0.000000E+00  0.000000E+00  0.000000E+00  0.000000E+00  4.273700E-03 -1.708511E-05 -4.636225E-05  4.273414E-03                                                                                                                                                                                                                                                                                                                                                                                                                                                                                              
  3.750000E+02  1.250000E+02 -5.425000E+03  3.741096E-09 -6.881869E-12 -4.187381E-11  3.740855E-09  2.198589E-11 -4.101168E-14 -2.495421E-13  2.198443E-11  0.000000E+00  0.000000E+00  0.000000E+00  0.000000E+00  0.000000E+00  0.000000E+00  0.000000E+00  0.000000E+00  4.248390E-03 -7.815055E-06 -4.755195E-05  4.248117E-03                                                                                                                                                                                                                                                                                                                                                                                                                                                                                              
  6.250000E+02  1.250000E+02 -5.425000E+03  3.720427E-09  7.863971E-11 -4.505269E-11  3.719323E-09  2.186457E-11  4.686442E-13 -2.684863E-13  2.185790E-11  0.000000E+00  0.000000E+00  0.000000E+00  0.000000E+00  0.000000E+00  0.000000E+00  0.000000E+00  0.000000E+00  4.224921E-03  8.930335E-05 -5.116193E-05  4.223668E-03                                                                                                                                                                                                                                                                                                                                                                                                                                                                                              
  7.600000E+02  1.250000E+02 -5.425000E+03  3.731634E-09  1.448246E-10 -4.663486E-11  3.728531E-09  2.193077E-11  8.630653E-13 -2.779151E-13  2.191202E-11  0.000000E+00  0.000000E+00  0.000000E+00  0.000000E+00  0.000000E+00  0.000000E+00  0.000000E+00  0.000000E+00  4.237648E-03  1.644629E-04 -5.295864E-05  4.234124E-03                                                                                                                                                                                                                                                                                                                                                                                                                                                                                              
  7.800000E+02  1.250000E+02 -5.425000E+03  3.733516E-09  1.523796E-10 -4.687884E-11  3.730110E-09  2.194188E-11  9.080885E-13 -2.793690E-13  2.192130E-11  0.000000E+00  0.000000E+00  0.000000E+00  0.000000E+00  0.000000E+00  0.000000E+00  0.000000E+00  0.000000E+00  4.239784E-03  1.730424E-04 -5.323569E-05  4.235917E-03                                                                                                                                                                                                                                                                                                                                                                                                                                                                                              
  8.000000E+02  1.250000E+02 -5.425000E+03  3.735588E-09  1.595448E-10 -4.713583E-11  3.731882E-09  2.195411E-11  9.507888E-13 -2.809006E-13  2.193171E-11  0.000000E+00  0.000000E+00  0.000000E+00  0.000000E+00  0.000000E+00  0.000000E+00  0.000000E+00  0.000000E+00  4.242138E-03  1.811792E-04 -5.352753E-05  4.237929E-03                                                                                                                                                                                                                                                                                                                                                                                                                                                                                              
  9.350000E+02  1.250000E+02 -5.425000E+03  3.749917E-09  1.864310E-10 -4.897496E-11  3.744960E-09  2.203853E-11  1.111014E-12 -2.918606E-13  2.200857E-11  0.000000E+00  0.000000E+00  0.000000E+00  0.000000E+00  0.000000E+00  0.000000E+00  0.000000E+00  0.000000E+00  4.258408E-03  2.117112E-04 -5.561603E-05  4.252779E-03                                                                                                                                                                                                                                                                                                                                                                                                                                                                                              
  1.185000E+03  1.250000E+02 -5.425000E+03  3.784387E-09  1.823994E-10 -5.589446E-11  3.779575E-09  2.224109E-11  1.086988E-12 -3.330966E-13  2.221201E-11  0.000000E+00  0.000000E+00  0.000000E+00  0.000000E+00  0.000000E+00  0.000000E+00  0.000000E+00  0.000000E+00  4.297549E-03  2.071328E-04 -6.347378E-05  4.292085E-03                                                                                                                                                                                                                                                                                                                                                                                                                                                                                              
  1.435000E+03  1.250000E+02 -5.425000E+03  3.814002E-09  7.748155E-11 -6.102306E-11  3.812727E-09  2.241456E-11  4.617424E-13 -3.636599E-13  2.240685E-11  0.000000E+00  0.000000E+00  0.000000E+00  0.000000E+00  0.000000E+00  0.000000E+00  0.000000E+00  0.000000E+00  4.331178E-03  8.798804E-05 -6.929777E-05  4.329730E-03                                                                                                                                                                                                                                                                                                                                                                                                                                                                                              
  1.250000E+02  1.250000E+02 -5.225000E+03  7.664880E-09 -3.131045E-11 -5.119739E-11  7.664645E-09  4.457938E-11 -1.813920E-13 -2.966037E-13  4.457803E-11  0.000000E+00  0.000000E+00  0.000000E+00  0.000000E+00  0.000000E+00  0.000000E+00  0.000000E+00  0.000000E+00  8.337955E-03 -3.261691E-05 -5.333365E-05  8.337721E-03                                                                                                                                                                                                                                                                                                                                                                                                                                                                                              
  3.750000E+02  1.250000E+02 -5.225000E+03  7.568054E-09 -4.006269E-11 -5.293858E-11  7.567763E-09  4.401924E-11 -2.320966E-13 -3.066910E-13  4.401756E-11  0.000000E+00  0.000000E+00  0.000000E+00  0.000000E+00  0.000000E+00  0.000000E+00  0.000000E+00  0.000000E+00  8.234997E-03 -4.173434E-05 -5.514751E-05  8.234707E-03                                                                                                                                                                                                                                                                                                                                                                                                                                                                                              
  6.250000E+02  1.250000E+02 -5.225000E+03  7.465368E-09  7.133740E-11 -5.950311E-11  7.464790E-09  4.342545E-11  4.132816E-13 -3.447215E-13  4.342211E-11  0.000000E+00  0.000000E+00  0.000000E+00  0.000000E+00  0.000000E+00  0.000000E+00  0.000000E+00  0.000000E+00  8.125994E-03  7.431403E-05 -6.198598E-05  8.125418E-03                                                                                                                                                                                                                                                                                                                                                                                                                                                                                              
  7.600000E+02  1.250000E+02 -5.225000E+03  7.504424E-09  1.658236E-10 -6.029348E-11  7.502350E-09  4.365144E-11  9.606722E-13 -3.493004E-13  4.363947E-11  0.000000E+00  0.000000E+00  0.000000E+00  0.000000E+00  0.000000E+00  0.000000E+00  0.000000E+00  0.000000E+00  8.167479E-03  1.727428E-04 -6.280933E-05  8.165410E-03                                                                                                                                                                                                                                                                                                                                                                                                                                                                                              
  7.800000E+02  1.250000E+02 -5.225000E+03  7.511566E-09  1.768256E-10 -6.043253E-11  7.509241E-09  4.369275E-11  1.024411E-12 -3.501060E-13  4.367934E-11  0.000000E+00  0.000000E+00  0.000000E+00  0.000000E+00  0.000000E+00  0.000000E+00  0.000000E+00  0.000000E+00  8.175056E-03  1.842039E-04 -6.295418E-05  8.172738E-03                                                                                                                                                                                                                                                                                                                                                                                                                                                                                              
  8.000000E+02  1.250000E+02 -5.225000E+03  7.521548E-09  1.870601E-10 -6.059991E-11  7.518978E-09  4.375045E-11  1.083702E-12 -3.510757E-13  4.373562E-11  0.000000E+00  0.000000E+00  0.000000E+00  0.000000E+00  0.000000E+00  0.000000E+00  0.000000E+00  0.000000E+00  8.185610E-03  1.948654E-04 -6.312855E-05  8.183047E-03                                                                                                                                                                                                                                                                                                                                                                                                                                                                                              
  9.350000E+02  1.250000E+02 -5.225000E+03  7.581155E-09  2.217470E-10 -6.187978E-11  7.577659E-09  4.409522E-11  1.284656E-12 -3.584906E-13  4.407505E-11  0.000000E+00  0.000000E+00  0.000000E+00  0.000000E+00  0.000000E+00  0.000000E+00  0.000000E+00  0.000000E+00  8.248892E-03  2.309999E-04 -6.446183E-05  8.245405E-03                                                                                                                                                                                                                                                                                                                                                                                                                                                                                              
  1.185000E+03  1.250000E+02 -5.225000E+03  7.718778E-09  2.238530E-10 -7.241891E-11  7.715192E-09  4.489178E-11  1.296858E-12 -4.195476E-13  4.487108E-11  0.000000E+00  0.000000E+00  0.000000E+00  0.000000E+00  0.000000E+00  0.000000E+00  0.000000E+00  0.000000E+00  8.395511E-03  2.331940E-04 -7.544079E-05  8.391933E-03                                                                                                                                                                                                                                                                                                                                                                                                                                                                                              
  1.435000E+03  1.250000E+02 -5.225000E+03  7.860037E-09  9.807436E-11 -7.934280E-11  7.859025E-09  4.570907E-11  5.681790E-13 -4.596606E-13  4.570323E-11  0.000000E+00  0.000000E+00  0.000000E+00  0.000000E+00  0.000000E+00  0.000000E+00  0.000000E+00  0.000000E+00  8.545901E-03  1.021669E-04 -8.265374E-05  8.544890E-03                                                                                                                                                                                                                                                                                                                                                                                                                                                                                              
  1.250000E+02  1.250000E+02 -4.975000E+03  8.047427E-09 -1.005744E-10 -1.012880E-10  8.046161E-09  4.600841E-11 -5.748938E-13 -5.789726E-13  4.600118E-11  0.000000E+00  0.000000E+00  0.000000E+00  0.000000E+00  0.000000E+00  0.000000E+00  0.000000E+00  0.000000E+00  8.181460E-03 -9.987697E-05 -1.005857E-04  8.180232E-03                                                                                                                                                                                                                                                                                                                                                                                                                                                                                              
  3.750000E+02  1.250000E+02 -4.975000E+03  7.788776E-09 -1.861514E-10 -1.060441E-10  7.785829E-09  4.453203E-11 -1.064060E-12 -6.061581E-13  4.451519E-11  0.000000E+00  0.000000E+00  0.000000E+00  0.000000E+00  0.000000E+00  0.000000E+00  0.000000E+00  0.000000E+00  7.920914E-03 -1.848601E-04 -1.053086E-04  7.918056E-03                                                                                                                                                                                                                                                                                                                                                                                                                                                                                              
  6.250000E+02  1.250000E+02 -4.975000E+03  7.457594E-09  4.235784E-11 -1.381530E-10  7.456194E-09  4.264280E-11  2.421210E-13 -7.896945E-13  4.263480E-11  0.000000E+00  0.000000E+00  0.000000E+00  0.000000E+00  0.000000E+00  0.000000E+00  0.000000E+00  0.000000E+00  7.588085E-03  4.206391E-05 -1.371939E-04  7.586728E-03                                                                                                                                                                                                                                                                                                                                                                                                                                                                                              
  7.600000E+02  1.250000E+02 -4.975000E+03  7.486169E-09  2.748936E-10 -1.294483E-10  7.480001E-09  4.280751E-11  1.571317E-12 -7.399381E-13  4.277226E-11  0.000000E+00  0.000000E+00  0.000000E+00  0.000000E+00  0.000000E+00  0.000000E+00  0.000000E+00  0.000000E+00  7.617731E-03  2.729861E-04 -1.285499E-04  7.611753E-03                                                                                                                                                                                                                                                                                                                                                                                                                                                                                              
  7.800000E+02  1.250000E+02 -4.975000E+03  7.490369E-09  3.135065E-10 -1.285676E-10  7.482701E-09  4.283182E-11  1.792032E-12 -7.349041E-13  4.278800E-11  0.000000E+00  0.000000E+00  0.000000E+00  0.000000E+00  0.000000E+00  0.000000E+00  0.000000E+00  0.000000E+00  7.622124E-03  3.113312E-04 -1.276754E-04  7.614693E-03                                                                                                                                                                                                                                                                                                                                                                                                                                                                                              
  8.000000E+02  1.250000E+02 -4.975000E+03  7.671662E-09  3.395072E-10 -1.282662E-10  7.663073E-09  4.386325E-11  1.940656E-12 -7.331814E-13  4.381417E-11  0.000000E+00  0.000000E+00  0.000000E+00  0.000000E+00  0.000000E+00  0.000000E+00  0.000000E+00  0.000000E+00  7.802543E-03  3.371521E-04 -1.273761E-04  7.794215E-03                                                                                                                                                                                                                                                                                                                                                                                                                                                                                              
  9.350000E+02  1.250000E+02 -4.975000E+03  7.797197E-09  3.898932E-10 -1.241053E-10  7.786454E-09  4.458050E-11  2.228671E-12 -7.093982E-13  4.451911E-11  0.000000E+00  0.000000E+00  0.000000E+00  0.000000E+00  0.000000E+00  0.000000E+00  0.000000E+00  0.000000E+00  7.929387E-03  3.871897E-04 -1.232446E-04  7.918969E-03                                                                                                                                                                                                                                                                                                                                                                                                                                                                                              
  1.185000E+03  1.250000E+02 -4.975000E+03  8.103014E-09  4.121998E-10 -1.568145E-10  8.091003E-09  4.632739E-11  2.356184E-12 -8.963692E-13  4.625875E-11  0.000000E+00  0.000000E+00  0.000000E+00  0.000000E+00  0.000000E+00  0.000000E+00  0.000000E+00  0.000000E+00  8.238114E-03  4.093439E-04 -1.557275E-04  8.226464E-03                                                                                                                                                                                                                                                                                                                                                                                                                                                                                              
  1.435000E+03  1.250000E+02 -4.975000E+03  8.502786E-09  1.952661E-10 -1.693096E-10  8.498857E-09  4.860915E-11  1.116167E-12 -9.677966E-13  4.858670E-11  0.000000E+00  0.000000E+00  0.000000E+00  0.000000E+00  0.000000E+00  0.000000E+00  0.000000E+00  0.000000E+00  8.640766E-03  1.939141E-04 -1.681375E-04  8.636954E-03                                                                                                                                                                                                                                                                                                                                                                                                                                                                                              
  1.250000E+02  1.250000E+02 -4.725000E+03  8.469447E-09 -7.172442E-11 -6.505201E-11  8.468894E-09  4.652184E-11 -4.043362E-13 -3.667240E-13  4.651864E-11  0.000000E+00  0.000000E+00  0.000000E+00  0.000000E+00  0.000000E+00  0.000000E+00  0.000000E+00  0.000000E+00  8.185392E-03 -6.745298E-05 -6.118144E-05  8.184885E-03                                                                                                                                                                                                                                                                                                                                                                                                                                                                                              
  3.750000E+02  1.250000E+02 -4.725000E+03  8.017264E-09 -1.250734E-10 -7.428322E-11  8.015944E-09  4.404771E-11 -7.050348E-13 -4.187065E-13  4.404008E-11  0.000000E+00  0.000000E+00  0.000000E+00  0.000000E+00  0.000000E+00  0.000000E+00  0.000000E+00  0.000000E+00  7.748086E-03 -1.175885E-04 -6.982683E-05  7.746879E-03                                                                                                                                                                                                                                                                                                                                                                                                                                                                                              
  6.250000E+02  1.250000E+02 -4.725000E+03  7.395097E-09  5.610001E-11 -9.430366E-11  7.394283E-09  4.064657E-11  3.161467E-13 -5.314234E-13  4.064186E-11  0.000000E+00  0.000000E+00  0.000000E+00  0.000000E+00  0.000000E+00  0.000000E+00  0.000000E+00  0.000000E+00  7.147396E-03  5.272079E-05 -8.853827E-05  7.146653E-03                                                                                                                                                                                                                                                                                                                                                                                                                                                                                              
  7.600000E+02  1.250000E+02 -4.725000E+03  7.328347E-09  2.371119E-10 -9.789451E-11  7.323856E-09  4.029200E-11  1.336343E-12 -5.516876E-13  4.026605E-11  0.000000E+00  0.000000E+00  0.000000E+00  0.000000E+00  0.000000E+00  0.000000E+00  0.000000E+00  0.000000E+00  7.084358E-03  2.228303E-04 -9.194750E-05  7.080255E-03                                                                                                                                                                                                                                                                                                                                                                                                                                                                                              
  7.800000E+02  1.250000E+02 -4.725000E+03  7.304854E-09  2.752036E-10 -9.907275E-11  7.298996E-09  4.016683E-11  1.551074E-12 -5.583329E-13  4.013298E-11  0.000000E+00  0.000000E+00  0.000000E+00  0.000000E+00  0.000000E+00  0.000000E+00  0.000000E+00  0.000000E+00  7.062092E-03  2.586282E-04 -9.306167E-05  7.056741E-03                                                                                                                                                                                                                                                                                                                                                                                                                                                                                              
  8.000000E+02  1.250000E+02 -4.725000E+03  7.916614E-09  2.938249E-10 -1.010594E-10  7.910513E-09  4.348379E-11  1.656141E-12 -5.695693E-13  4.344851E-11  0.000000E+00  0.000000E+00  0.000000E+00  0.000000E+00  0.000000E+00  0.000000E+00  0.000000E+00  0.000000E+00  7.647916E-03  2.761894E-04 -9.493693E-05  7.642337E-03                                                                                                                                                                                                                                                                                                                                                                                                                                                                                              
  9.350000E+02  1.250000E+02 -4.725000E+03  8.046448E-09  3.113887E-10 -1.089209E-10  8.039683E-09  4.420422E-11  1.755320E-12 -6.139377E-13  4.416509E-11  0.000000E+00  0.000000E+00  0.000000E+00  0.000000E+00  0.000000E+00  0.000000E+00  0.000000E+00  0.000000E+00  7.774983E-03  2.928013E-04 -1.023791E-04  7.768793E-03                                                                                                                                                                                                                                                                                                                                                                                                                                                                                              
  1.185000E+03  1.250000E+02 -4.725000E+03  8.507721E-09  3.201222E-10 -1.371158E-10  8.500591E-09  4.673435E-11  1.804814E-12 -7.729546E-13  4.669309E-11  0.000000E+00  0.000000E+00  0.000000E+00  0.000000E+00  0.000000E+00  0.000000E+00  0.000000E+00  0.000000E+00  8.222031E-03  3.011394E-04 -1.289208E-04  8.215503E-03                                                                                                                                                                                                                                                                                                                                                                                                                                                                                              