Title="TOUGHREACT V3.30-OMP flowvector.tec: Liq & Gas Fluxes (kg/s/m^2), Pore Velocities (m/s), & Heat Fluxes (J/s/m2)"                                                                                                                                                                                                                                                                                                                                                                                                                                                                                                                                                                                                                                                                                                         
Variables= "X(m)"     "Y(m)"      "Z(m)"     "FluxLiq"   "FluxLiq_X"   "FluxLiq_Y"   "FluxLiq_Z"   "PorVelLiq"  "PorVelLiqX"  "PorVelLiqY"  "PorVelLiqZ"     "FluxGas"   "FluxGas_X"   "FluxGas_Y"   "FluxGas_Z"   "PorVelGas"  "PorVelGasX"  "PorVelGasY"  "PorVelGasZ"    "HeatFlux"  "HeatFlux_X"  "HeatFlux_Y"  "HeatFlux_Z"                                                                                                                                                                                                                                                                                                                                                                                                                                                                                                
Zone T= "8.33000000E+10 sec" I=     9 J=    10 K=    23 F=Point
  1.250000E+02  1.250000E+02 -5.425000E+03  3.830294E-09 -1.648476E-11 -4.134227E-11  3.830036E-09  2.258692E-11 -9.892801E-14 -2.481024E-13  2.258534E-11  0.000000E+00  0.000000E+00  0.000000E+00  0.000000E+00  0.000000E+00  0.000000E+00  0.000000E+00  0.000000E+00  4.432307E-03 -1.907571E-05 -4.784012E-05  4.432008E-03                                                                                                                                                                                                                                                                                                                                                                                                                                                                                              
  3.750000E+02  1.250000E+02 -5.425000E+03  3.807398E-09 -1.043029E-11 -4.228083E-11  3.807149E-09  2.245190E-11 -6.259405E-14 -2.537349E-13  2.245038E-11  0.000000E+00  0.000000E+00  0.000000E+00  0.000000E+00  0.000000E+00  0.000000E+00  0.000000E+00  0.000000E+00  4.405815E-03 -1.206964E-05 -4.892623E-05  4.405527E-03                                                                                                                                                                                                                                                                                                                                                                                                                                                                                              
  6.250000E+02  1.250000E+02 -5.425000E+03  3.785841E-09  7.477558E-11 -4.523830E-11  3.784832E-09  2.232494E-11  4.487418E-13 -2.714833E-13  2.231878E-11  0.000000E+00  0.000000E+00  0.000000E+00  0.000000E+00  0.000000E+00  0.000000E+00  0.000000E+00  0.000000E+00  4.380872E-03  8.652826E-05 -5.234857E-05  4.379705E-03                                                                                                                                                                                                                                                                                                                                                                                                                                                                                              
  7.600000E+02  1.250000E+02 -5.425000E+03  3.796816E-09  1.413410E-10 -4.654439E-11  3.793898E-09  2.239006E-11  8.482127E-13 -2.793214E-13  2.237225E-11  0.000000E+00  0.000000E+00  0.000000E+00  0.000000E+00  0.000000E+00  0.000000E+00  0.000000E+00  0.000000E+00  4.393571E-03  1.635559E-04 -5.385993E-05  4.390195E-03                                                                                                                                                                                                                                                                                                                                                                                                                                                                                              
  7.800000E+02  1.250000E+02 -5.425000E+03  3.798664E-09  1.489688E-10 -4.674652E-11  3.795454E-09  2.240103E-11  8.939888E-13 -2.805344E-13  2.238142E-11  0.000000E+00  0.000000E+00  0.000000E+00  0.000000E+00  0.000000E+00  0.000000E+00  0.000000E+00  0.000000E+00  4.395710E-03  1.723826E-04 -5.409383E-05  4.391995E-03                                                                                                                                                                                                                                                                                                                                                                                                                                                                                              
  8.000000E+02  1.250000E+02 -5.425000E+03  3.800710E-09  1.561904E-10 -4.696136E-11  3.797209E-09  2.241316E-11  9.373271E-13 -2.818237E-13  2.239177E-11  0.000000E+00  0.000000E+00  0.000000E+00  0.000000E+00  0.000000E+00  0.000000E+00  0.000000E+00  0.000000E+00  4.398078E-03  1.807393E-04 -5.434244E-05  4.394026E-03                                                                                                                                                                                                                                                                                                                                                                                                                                                                                              
  9.350000E+02  1.250000E+02 -5.425000E+03  3.814902E-09  1.834179E-10 -4.849860E-11  3.810181E-09  2.249710E-11  1.100724E-12 -2.910489E-13  2.246827E-11  0.000000E+00  0.000000E+00  0.000000E+00  0.000000E+00  0.000000E+00  0.000000E+00  0.000000E+00  0.000000E+00  4.414498E-03  2.122461E-04 -5.612127E-05  4.409036E-03                                                                                                                                                                                                                                                                                                                                                                                                                                                                                              
  1.185000E+03  1.250000E+02 -5.425000E+03  3.849008E-09  1.802501E-10 -5.488506E-11  3.844394E-09  2.269822E-11  1.081713E-12 -3.293753E-13  2.267004E-11  0.000000E+00  0.000000E+00  0.000000E+00  0.000000E+00  0.000000E+00  0.000000E+00  0.000000E+00  0.000000E+00  4.453962E-03  2.085803E-04 -6.351146E-05  4.448622E-03                                                                                                                                                                                                                                                                                                                                                                                                                                                                                              
  1.435000E+03  1.250000E+02 -5.425000E+03  3.878404E-09  7.667368E-11 -5.966519E-11  3.877187E-09  2.287086E-11  4.601327E-13 -3.580617E-13  2.286343E-11  0.000000E+00  0.000000E+00  0.000000E+00  0.000000E+00  0.000000E+00  0.000000E+00  0.000000E+00  0.000000E+00  4.487976E-03  8.872459E-05 -6.904285E-05  4.486568E-03                                                                                                                                                                                                                                                                                                                                                                                                                                                                                              
  1.250000E+02  1.250000E+02 -5.225000E+03  7.798091E-09 -3.252798E-11 -5.127786E-11  7.797855E-09  4.543223E-11 -1.884566E-13 -2.970873E-13  4.543087E-11  0.000000E+00  0.000000E+00  0.000000E+00  0.000000E+00  0.000000E+00  0.000000E+00  0.000000E+00  0.000000E+00  8.566106E-03 -3.388918E-05 -5.342369E-05  8.565873E-03                                                                                                                                                                                                                                                                                                                                                                                                                                                                                              
  3.750000E+02  1.250000E+02 -5.225000E+03  7.699669E-09 -4.347903E-11 -5.288688E-11  7.699364E-09  4.486233E-11 -2.519034E-13 -3.064094E-13  4.486058E-11  0.000000E+00  0.000000E+00  0.000000E+00  0.000000E+00  0.000000E+00  0.000000E+00  0.000000E+00  0.000000E+00  8.460920E-03 -4.529849E-05 -5.510003E-05  8.460619E-03                                                                                                                                                                                                                                                                                                                                                                                                                                                                                              
  6.250000E+02  1.250000E+02 -5.225000E+03  7.594615E-09  6.631336E-11 -5.911017E-11  7.594095E-09  4.425434E-11  3.841980E-13 -3.424650E-13  4.425135E-11  0.000000E+00  0.000000E+00  0.000000E+00  0.000000E+00  0.000000E+00  0.000000E+00  0.000000E+00  0.000000E+00  8.348885E-03  6.908833E-05 -6.158372E-05  8.348372E-03                                                                                                                                                                                                                                                                                                                                                                                                                                                                                              
  7.600000E+02  1.250000E+02 -5.225000E+03  7.632720E-09  1.601357E-10 -5.947002E-11  7.630809E-09  4.447502E-11  9.277741E-13 -3.445499E-13  4.446400E-11  0.000000E+00  0.000000E+00  0.000000E+00  0.000000E+00  0.000000E+00  0.000000E+00  0.000000E+00  0.000000E+00  8.389557E-03  1.668368E-04 -6.195865E-05  8.387669E-03                                                                                                                                                                                                                                                                                                                                                                                                                                                                                              
  7.800000E+02  1.250000E+02 -5.225000E+03  7.639723E-09  1.710641E-10 -5.954340E-11  7.637575E-09  4.451555E-11  9.910902E-13 -3.449751E-13  4.450318E-11  0.000000E+00  0.000000E+00  0.000000E+00  0.000000E+00  0.000000E+00  0.000000E+00  0.000000E+00  0.000000E+00  8.397019E-03  1.782227E-04 -6.203510E-05  8.394899E-03                                                                                                                                                                                                                                                                                                                                                                                                                                                                                              
  8.000000E+02  1.250000E+02 -5.225000E+03  7.649583E-09  1.812274E-10 -5.964339E-11  7.647203E-09  4.457258E-11  1.049973E-12 -3.455544E-13  4.455887E-11  0.000000E+00  0.000000E+00  0.000000E+00  0.000000E+00  0.000000E+00  0.000000E+00  0.000000E+00  0.000000E+00  8.407482E-03  1.888113E-04 -6.213928E-05  8.405132E-03                                                                                                                                                                                                                                                                                                                                                                                                                                                                                              
  9.350000E+02  1.250000E+02 -5.225000E+03  7.708310E-09  2.156229E-10 -6.045740E-11  7.705056E-09  4.491254E-11  1.249250E-12 -3.502707E-13  4.489380E-11  0.000000E+00  0.000000E+00  0.000000E+00  0.000000E+00  0.000000E+00  0.000000E+00  0.000000E+00  0.000000E+00  8.470118E-03  2.246462E-04 -6.298738E-05  8.466904E-03                                                                                                                                                                                                                                                                                                                                                                                                                                                                                              
  1.185000E+03  1.250000E+02 -5.225000E+03  7.843230E-09  2.182779E-10 -7.007439E-11  7.839879E-09  4.569422E-11  1.264634E-12 -4.059888E-13  4.567491E-11  0.000000E+00  0.000000E+00  0.000000E+00  0.000000E+00  0.000000E+00  0.000000E+00  0.000000E+00  0.000000E+00  8.614638E-03  2.274128E-04 -7.300695E-05  8.611326E-03                                                                                                                                                                                                                                                                                                                                                                                                                                                                                              
  1.435000E+03  1.250000E+02 -5.225000E+03  7.981761E-09  9.568957E-11 -7.633862E-11  7.980822E-09  4.649648E-11  5.543958E-13 -4.422824E-13  4.649107E-11  0.000000E+00  0.000000E+00  0.000000E+00  0.000000E+00  0.000000E+00  0.000000E+00  0.000000E+00  0.000000E+00  8.762892E-03  9.969434E-05 -7.953353E-05  8.761964E-03                                                                                                                                                                                                                                                                                                                                                                                                                                                                                              
  1.250000E+02  1.250000E+02 -4.975000E+03  8.172350E-09 -1.019312E-10 -1.014516E-10  8.171085E-09  4.672510E-11 -5.826714E-13 -5.799301E-13  4.671787E-11  0.000000E+00  0.000000E+00  0.000000E+00  0.000000E+00  0.000000E+00  0.000000E+00  0.000000E+00  0.000000E+00  8.309464E-03 -1.012299E-04 -1.007538E-04  8.308236E-03                                                                                                                                                                                                                                                                                                                                                                                                                                                                                              
  3.750000E+02  1.250000E+02 -4.975000E+03  7.911638E-09 -1.902758E-10 -1.060371E-10  7.908639E-09  4.523683E-11 -1.087676E-12 -6.061412E-13  4.521969E-11  0.000000E+00  0.000000E+00  0.000000E+00  0.000000E+00  0.000000E+00  0.000000E+00  0.000000E+00  0.000000E+00  8.046792E-03 -1.889662E-04 -1.053074E-04  8.043884E-03                                                                                                                                                                                                                                                                                                                                                                                                                                                                                              
  6.250000E+02  1.250000E+02 -4.975000E+03  7.577173E-09  3.501405E-11 -1.375977E-10  7.575842E-09  4.332870E-11  2.001507E-13 -7.865496E-13  4.332110E-11  0.000000E+00  0.000000E+00  0.000000E+00  0.000000E+00  0.000000E+00  0.000000E+00  0.000000E+00  0.000000E+00  7.710601E-03  3.477297E-05 -1.366496E-04  7.709312E-03                                                                                                                                                                                                                                                                                                                                                                                                                                                                                              
  7.600000E+02  1.250000E+02 -4.975000E+03  7.602732E-09  2.656032E-10 -1.277402E-10  7.597018E-09  4.347623E-11  1.518270E-12 -7.302020E-13  4.344358E-11  0.000000E+00  0.000000E+00  0.000000E+00  0.000000E+00  0.000000E+00  0.000000E+00  0.000000E+00  0.000000E+00  7.737233E-03  2.637746E-04 -1.268604E-04  7.731695E-03                                                                                                                                                                                                                                                                                                                                                                                                                                                                                              
  7.800000E+02  1.250000E+02 -4.975000E+03  7.606339E-09  3.039507E-10 -1.266812E-10  7.599208E-09  4.349716E-11  1.737476E-12 -7.241484E-13  4.345642E-11  0.000000E+00  0.000000E+00  0.000000E+00  0.000000E+00  0.000000E+00  0.000000E+00  0.000000E+00  0.000000E+00  7.741036E-03  3.018582E-04 -1.258088E-04  7.734125E-03                                                                                                                                                                                                                                                                                                                                                                                                                                                                                              
  8.000000E+02  1.250000E+02 -4.975000E+03  7.787842E-09  3.296462E-10 -1.261956E-10  7.779839E-09  4.452985E-11  1.884361E-12 -7.213728E-13  4.448411E-11  0.000000E+00  0.000000E+00  0.000000E+00  0.000000E+00  0.000000E+00  0.000000E+00  0.000000E+00  0.000000E+00  7.921671E-03  3.273774E-04 -1.253266E-04  7.913911E-03                                                                                                                                                                                                                                                                                                                                                                                                                                                                                              
  9.350000E+02  1.250000E+02 -4.975000E+03  7.909687E-09  3.784137E-10 -1.207293E-10  7.899707E-09  4.522612E-11  2.163136E-12 -6.901266E-13  4.516909E-11  0.000000E+00  0.000000E+00  0.000000E+00  0.000000E+00  0.000000E+00  0.000000E+00  0.000000E+00  0.000000E+00  8.044833E-03  3.758106E-04 -1.198985E-04  8.035156E-03                                                                                                                                                                                                                                                                                                                                                                                                                                                                                              
  1.185000E+03  1.250000E+02 -4.975000E+03  8.206185E-09  3.998195E-10 -1.507889E-10  8.195052E-09  4.692002E-11  2.285505E-12 -8.619595E-13  4.685640E-11  0.000000E+00  0.000000E+00  0.000000E+00  0.000000E+00  0.000000E+00  0.000000E+00  0.000000E+00  0.000000E+00  8.344230E-03  3.970717E-04 -1.497520E-04  8.333432E-03                                                                                                                                                                                                                                                                                                                                                                                                                                                                                              
  1.435000E+03  1.250000E+02 -4.975000E+03  8.594058E-09  1.893459E-10 -1.612480E-10  8.590459E-09  4.913417E-11  1.082369E-12 -9.217507E-13  4.911360E-11  0.000000E+00  0.000000E+00  0.000000E+00  0.000000E+00  0.000000E+00  0.000000E+00  0.000000E+00  0.000000E+00  8.734972E-03  1.880457E-04 -1.601408E-04  8.731479E-03                                                                                                                                                                                                                                                                                                                                                                                                                                                                                              
  1.250000E+02  1.250000E+02 -4.725000E+03  8.578570E-09 -7.269760E-11 -6.519587E-11  8.578014E-09  4.712477E-11 -4.098384E-13 -3.675495E-13  4.712155E-11  0.000000E+00  0.000000E+00  0.000000E+00  0.000000E+00  0.000000E+00  0.000000E+00  0.000000E+00  0.000000E+00  8.291640E-03 -6.837265E-05 -6.132076E-05  8.291132E-03                                                                                                                                                                                                                                                                                                                                                                                                                                                                                              
  3.750000E+02  1.250000E+02 -4.725000E+03  8.124600E-09 -1.284960E-10 -7.432985E-11  8.123244E-09  4.464060E-11 -7.243548E-13 -4.189855E-13  4.463276E-11  0.000000E+00  0.000000E+00  0.000000E+00  0.000000E+00  0.000000E+00  0.000000E+00  0.000000E+00  0.000000E+00  7.852528E-03 -1.208132E-04 -6.987506E-05  7.851287E-03                                                                                                                                                                                                                                                                                                                                                                                                                                                                                              
  6.250000E+02  1.250000E+02 -4.725000E+03  7.502252E-09  4.555728E-11 -9.342331E-11  7.501532E-09  4.123763E-11  2.567371E-13 -5.264821E-13  4.123347E-11  0.000000E+00  0.000000E+00  0.000000E+00  0.000000E+00  0.000000E+00  0.000000E+00  0.000000E+00  0.000000E+00  7.251494E-03  4.281575E-05 -8.771673E-05  7.250837E-03                                                                                                                                                                                                                                                                                                                                                                                                                                                                                              
  7.600000E+02  1.250000E+02 -4.725000E+03  7.442173E-09  2.193437E-10 -9.396046E-11  7.438346E-09  4.091753E-11  1.236249E-12 -5.295370E-13  4.089542E-11  0.000000E+00  0.000000E+00  0.000000E+00  0.000000E+00  0.000000E+00  0.000000E+00  0.000000E+00  0.000000E+00  7.194636E-03  2.061450E-04 -8.825762E-05  7.191140E-03                                                                                                                                                                                                                                                                                                                                                                                                                                                                                              
  7.800000E+02  1.250000E+02 -4.725000E+03  7.419611E-09  2.540682E-10 -9.457055E-11  7.414656E-09  4.079704E-11  1.432007E-12 -5.329805E-13  4.076841E-11  0.000000E+00  0.000000E+00  0.000000E+00  0.000000E+00  0.000000E+00  0.000000E+00  0.000000E+00  0.000000E+00  7.173228E-03  2.387804E-04 -8.883790E-05  7.168702E-03                                                                                                                                                                                                                                                                                                                                                                                                                                                                                              
  8.000000E+02  1.250000E+02 -4.725000E+03  8.005927E-09  2.711526E-10 -9.585795E-11  8.000760E-09  4.397893E-11  1.528408E-12 -5.402744E-13  4.394905E-11  0.000000E+00  0.000000E+00  0.000000E+00  0.000000E+00  0.000000E+00  0.000000E+00  0.000000E+00  0.000000E+00  7.735217E-03  2.548939E-04 -9.005596E-05  7.730492E-03                                                                                                                                                                                                                                                                                                                                                                                                                                                                                              
  9.350000E+02  1.250000E+02 -4.725000E+03  8.131850E-09  2.857227E-10 -9.921588E-11  8.126223E-09  4.467744E-11  1.610701E-12 -5.592564E-13  4.464489E-11  0.000000E+00  0.000000E+00  0.000000E+00  0.000000E+00  0.000000E+00  0.000000E+00  0.000000E+00  0.000000E+00  7.858487E-03  2.686844E-04 -9.326278E-05  7.853339E-03                                                                                                                                                                                                                                                                                                                                                                                                                                                                                              
  1.185000E+03  1.250000E+02 -4.725000E+03  8.569860E-09  2.883170E-10 -1.185378E-10  8.564188E-09  4.708115E-11  1.625562E-12 -6.682517E-13  4.704833E-11  0.000000E+00  0.000000E+00  0.000000E+00  0.000000E+00  0.000000E+00  0.000000E+00  0.000000E+00  0.000000E+00  8.283356E-03  2.712370E-04 -1.114602E-04  8.278164E-03                                                                                                                                                                                                                                                                                                                                                                                                                                                                                              