Title="TOUGHREACT V3.30-OMP flowvector.tec: Liq & Gas Fluxes (kg/s/m^2), Pore Velocities (m/s), & Heat Fluxes (J/s/m2)"                                                                                                                                                                                                                                                                                                                                                                                                                                                                                                                                                                                                                                                                                                         
Variables= "X(m)"     "Y(m)"      "Z(m)"     "FluxLiq"   "FluxLiq_X"   "FluxLiq_Y"   "FluxLiq_Z"   "PorVelLiq"  "PorVelLiqX"  "PorVelLiqY"  "PorVelLiqZ"     "FluxGas"   "FluxGas_X"   "FluxGas_Y"   "FluxGas_Z"   "PorVelGas"  "PorVelGasX"  "PorVelGasY"  "PorVelGasZ"    "HeatFlux"  "HeatFlux_X"  "HeatFlux_Y"  "HeatFlux_Z"                                                                                                                                                                                                                                                                                                                                                                                                                                                                                                
Zone T= "9.66000000E+10 sec" I=     9 J=    10 K=    23 F=Point
  1.250000E+02  1.250000E+02 -5.425000E+03  3.870740E-09 -1.691657E-11 -4.179229E-11  3.870477E-09  2.287062E-11 -1.019333E-13 -2.518255E-13  2.286901E-11  0.000000E+00  0.000000E+00  0.000000E+00  0.000000E+00  0.000000E+00  0.000000E+00  0.000000E+00  0.000000E+00  4.526995E-03 -1.978467E-05 -4.887789E-05  4.526688E-03                                                                                                                                                                                                                                                                                                                                                                                                                                                                                              
  3.750000E+02  1.250000E+02 -5.425000E+03  3.847556E-09 -1.108484E-11 -4.273297E-11  3.847303E-09  2.273363E-11 -6.679330E-14 -2.574937E-13  2.273208E-11  0.000000E+00  0.000000E+00  0.000000E+00  0.000000E+00  0.000000E+00  0.000000E+00  0.000000E+00  0.000000E+00  4.499883E-03 -1.296420E-05 -4.997809E-05  4.499587E-03                                                                                                                                                                                                                                                                                                                                                                                                                                                                                              
  6.250000E+02  1.250000E+02 -5.425000E+03  3.825620E-09  7.510796E-11 -4.572487E-11  3.824609E-09  2.260420E-11  4.525740E-13 -2.755219E-13  2.259799E-11  0.000000E+00  0.000000E+00  0.000000E+00  0.000000E+00  0.000000E+00  0.000000E+00  0.000000E+00  0.000000E+00  4.474230E-03  8.784206E-05 -5.347729E-05  4.473048E-03                                                                                                                                                                                                                                                                                                                                                                                                                                                                                              
  7.600000E+02  1.250000E+02 -5.425000E+03  3.836703E-09  1.424993E-10 -4.701606E-11  3.833768E-09  2.267015E-11  8.586504E-13 -2.833022E-13  2.265211E-11  0.000000E+00  0.000000E+00  0.000000E+00  0.000000E+00  0.000000E+00  0.000000E+00  0.000000E+00  0.000000E+00  4.487192E-03  1.666592E-04 -5.498738E-05  4.483759E-03                                                                                                                                                                                                                                                                                                                                                                                                                                                                                              
  7.800000E+02  1.250000E+02 -5.425000E+03  3.838576E-09  1.502271E-10 -4.721643E-11  3.835345E-09  2.268128E-11  9.052157E-13 -2.845096E-13  2.266143E-11  0.000000E+00  0.000000E+00  0.000000E+00  0.000000E+00  0.000000E+00  0.000000E+00  0.000000E+00  0.000000E+00  4.489383E-03  1.756972E-04 -5.522172E-05  4.485603E-03                                                                                                                                                                                                                                                                                                                                                                                                                                                                                              
  8.000000E+02  1.250000E+02 -5.425000E+03  3.840638E-09  1.575527E-10 -4.743070E-11  3.837112E-09  2.269354E-11  9.493571E-13 -2.858007E-13  2.267187E-11  0.000000E+00  0.000000E+00  0.000000E+00  0.000000E+00  0.000000E+00  0.000000E+00  0.000000E+00  0.000000E+00  4.491794E-03  1.842648E-04 -5.547232E-05  4.487670E-03                                                                                                                                                                                                                                                                                                                                                                                                                                                                                              
  9.350000E+02  1.250000E+02 -5.425000E+03  3.854986E-09  1.851384E-10 -4.896795E-11  3.850227E-09  2.277861E-11  1.115579E-12 -2.950636E-13  2.274937E-11  0.000000E+00  0.000000E+00  0.000000E+00  0.000000E+00  0.000000E+00  0.000000E+00  0.000000E+00  0.000000E+00  4.508574E-03  2.165274E-04 -5.727018E-05  4.503007E-03                                                                                                                                                                                                                                                                                                                                                                                                                                                                                              
  1.185000E+03  1.250000E+02 -5.425000E+03  3.889425E-09  1.820675E-10 -5.541038E-11  3.884766E-09  2.298209E-11  1.097074E-12 -3.338834E-13  2.295346E-11  0.000000E+00  0.000000E+00  0.000000E+00  0.000000E+00  0.000000E+00  0.000000E+00  0.000000E+00  0.000000E+00  4.548848E-03  2.129358E-04 -6.480483E-05  4.543400E-03                                                                                                                                                                                                                                                                                                                                                                                                                                                                                              
  1.435000E+03  1.250000E+02 -5.425000E+03  3.919133E-09  7.747775E-11 -6.022255E-11  3.917904E-09  2.315683E-11  4.668536E-13 -3.628799E-13  2.314928E-11  0.000000E+00  0.000000E+00  0.000000E+00  0.000000E+00  0.000000E+00  0.000000E+00  0.000000E+00  0.000000E+00  4.583591E-03  9.061353E-05 -7.043283E-05  4.582154E-03                                                                                                                                                                                                                                                                                                                                                                                                                                                                                              
  1.250000E+02  1.250000E+02 -5.225000E+03  7.880818E-09 -3.278610E-11 -5.147107E-11  7.880582E-09  4.595996E-11 -1.899584E-13 -2.982167E-13  4.595860E-11  0.000000E+00  0.000000E+00  0.000000E+00  0.000000E+00  0.000000E+00  0.000000E+00  0.000000E+00  0.000000E+00  8.705172E-03 -3.416080E-05 -5.362924E-05  8.704940E-03                                                                                                                                                                                                                                                                                                                                                                                                                                                                                              
  3.750000E+02  1.250000E+02 -5.225000E+03  7.781507E-09 -4.396555E-11 -5.307550E-11  7.781202E-09  4.538462E-11 -2.547307E-13 -3.075124E-13  4.538286E-11  0.000000E+00  0.000000E+00  0.000000E+00  0.000000E+00  0.000000E+00  0.000000E+00  0.000000E+00  0.000000E+00  8.598732E-03 -4.580898E-05 -5.530089E-05  8.598432E-03                                                                                                                                                                                                                                                                                                                                                                                                                                                                                              
  6.250000E+02  1.250000E+02 -5.225000E+03  7.675364E-09  6.620045E-11 -5.930672E-11  7.674849E-09  4.477001E-11  3.835567E-13 -3.436152E-13  4.476705E-11  0.000000E+00  0.000000E+00  0.000000E+00  0.000000E+00  0.000000E+00  0.000000E+00  0.000000E+00  0.000000E+00  8.485228E-03  6.897613E-05 -6.179332E-05  8.484722E-03                                                                                                                                                                                                                                                                                                                                                                                                                                                                                              
  7.600000E+02  1.250000E+02 -5.225000E+03  7.713693E-09  1.603887E-10 -5.964025E-11  7.711794E-09  4.499210E-11  9.292712E-13 -3.455477E-13  4.498117E-11  0.000000E+00  0.000000E+00  0.000000E+00  0.000000E+00  0.000000E+00  0.000000E+00  0.000000E+00  0.000000E+00  8.526253E-03  1.671136E-04 -6.214087E-05  8.524388E-03                                                                                                                                                                                                                                                                                                                                                                                                                                                                                              
  7.800000E+02  1.250000E+02 -5.225000E+03  7.720744E-09  1.713605E-10 -5.970972E-11  7.718611E-09  4.503294E-11  9.928401E-13 -3.459502E-13  4.502066E-11  0.000000E+00  0.000000E+00  0.000000E+00  0.000000E+00  0.000000E+00  0.000000E+00  0.000000E+00  0.000000E+00  8.533787E-03  1.785455E-04 -6.221326E-05  8.531692E-03                                                                                                                                                                                                                                                                                                                                                                                                                                                                                              
  8.000000E+02  1.250000E+02 -5.225000E+03  7.730655E-09  1.815635E-10 -5.980586E-11  7.728291E-09  4.509029E-11  1.051955E-12 -3.465073E-13  4.507668E-11  0.000000E+00  0.000000E+00  0.000000E+00  0.000000E+00  0.000000E+00  0.000000E+00  0.000000E+00  0.000000E+00  8.544326E-03  1.891763E-04 -6.231343E-05  8.542005E-03                                                                                                                                                                                                                                                                                                                                                                                                                                                                                              
  9.350000E+02  1.250000E+02 -5.225000E+03  7.789779E-09  2.160785E-10 -6.059369E-11  7.786546E-09  4.543271E-11  1.251932E-12 -3.510720E-13  4.541410E-11  0.000000E+00  0.000000E+00  0.000000E+00  0.000000E+00  0.000000E+00  0.000000E+00  0.000000E+00  0.000000E+00  8.607556E-03  2.251387E-04 -6.313434E-05  8.604379E-03                                                                                                                                                                                                                                                                                                                                                                                                                                                                                              
  1.185000E+03  1.250000E+02 -5.225000E+03  7.925541E-09  2.187853E-10 -7.018560E-11  7.922209E-09  4.621970E-11  1.267616E-12 -4.066468E-13  4.620052E-11  0.000000E+00  0.000000E+00  0.000000E+00  0.000000E+00  0.000000E+00  0.000000E+00  0.000000E+00  0.000000E+00  8.753427E-03  2.279595E-04 -7.312861E-05  8.750153E-03                                                                                                                                                                                                                                                                                                                                                                                                                                                                                              
  1.435000E+03  1.250000E+02 -5.225000E+03  8.064978E-09  9.591863E-11 -7.641677E-11  8.064046E-09  4.702766E-11  5.557417E-13 -4.427501E-13  4.702229E-11  0.000000E+00  0.000000E+00  0.000000E+00  0.000000E+00  0.000000E+00  0.000000E+00  0.000000E+00  0.000000E+00  8.903101E-03  9.994097E-05 -7.962132E-05  8.902184E-03                                                                                                                                                                                                                                                                                                                                                                                                                                                                                              
  1.250000E+02  1.250000E+02 -4.975000E+03  8.254569E-09 -1.022712E-10 -1.016732E-10  8.253309E-09  4.719642E-11 -5.846256E-13 -5.812074E-13  4.718922E-11  0.000000E+00  0.000000E+00  0.000000E+00  0.000000E+00  0.000000E+00  0.000000E+00  0.000000E+00  0.000000E+00  8.393651E-03 -1.015709E-04 -1.009771E-04  8.392429E-03                                                                                                                                                                                                                                                                                                                                                                                                                                                                                              
  3.750000E+02  1.250000E+02 -4.975000E+03  7.992369E-09 -1.910091E-10 -1.062663E-10  7.989379E-09  4.569959E-11 -1.091889E-12 -6.074623E-13  4.568251E-11  0.000000E+00  0.000000E+00  0.000000E+00  0.000000E+00  0.000000E+00  0.000000E+00  0.000000E+00  0.000000E+00  8.129455E-03 -1.897007E-04 -1.055384E-04  8.126556E-03                                                                                                                                                                                                                                                                                                                                                                                                                                                                                              
  6.250000E+02  1.250000E+02 -4.975000E+03  7.656068E-09  3.463656E-11 -1.378716E-10  7.654748E-09  4.378092E-11  1.979964E-13 -7.881298E-13  4.377337E-11  0.000000E+00  0.000000E+00  0.000000E+00  0.000000E+00  0.000000E+00  0.000000E+00  0.000000E+00  0.000000E+00  7.791387E-03  3.439918E-05 -1.369260E-04  7.790107E-03                                                                                                                                                                                                                                                                                                                                                                                                                                                                                              
  7.600000E+02  1.250000E+02 -4.975000E+03  7.681676E-09  2.656753E-10 -1.279184E-10  7.676014E-09  4.392873E-11  1.518709E-12 -7.312334E-13  4.389638E-11  0.000000E+00  0.000000E+00  0.000000E+00  0.000000E+00  0.000000E+00  0.000000E+00  0.000000E+00  0.000000E+00  7.818078E-03  2.638547E-04 -1.270414E-04  7.812592E-03                                                                                                                                                                                                                                                                                                                                                                                                                                                                                              
  7.800000E+02  1.250000E+02 -4.975000E+03  7.685287E-09  3.041056E-10 -1.268455E-10  7.678220E-09  4.394969E-11  1.738394E-12 -7.251007E-13  4.390931E-11  0.000000E+00  0.000000E+00  0.000000E+00  0.000000E+00  0.000000E+00  0.000000E+00  0.000000E+00  0.000000E+00  7.821888E-03  3.020218E-04 -1.259760E-04  7.815039E-03                                                                                                                                                                                                                                                                                                                                                                                                                                                                                              
  8.000000E+02  1.250000E+02 -4.975000E+03  7.867321E-09  3.298488E-10 -1.263471E-10  7.859388E-09  4.498543E-11  1.885554E-12 -7.222523E-13  4.494009E-11  0.000000E+00  0.000000E+00  0.000000E+00  0.000000E+00  0.000000E+00  0.000000E+00  0.000000E+00  0.000000E+00  8.003059E-03  3.275893E-04 -1.254811E-04  7.995367E-03                                                                                                                                                                                                                                                                                                                                                                                                                                                                                              
  9.350000E+02  1.250000E+02 -4.975000E+03  7.989662E-09  3.785945E-10 -1.207850E-10  7.979773E-09  4.568457E-11  2.164209E-12 -6.904579E-13  4.562806E-11  0.000000E+00  0.000000E+00  0.000000E+00  0.000000E+00  0.000000E+00  0.000000E+00  0.000000E+00  0.000000E+00  8.126736E-03  3.760024E-04 -1.199577E-04  8.117147E-03                                                                                                                                                                                                                                                                                                                                                                                                                                                                                              
  1.185000E+03  1.250000E+02 -4.975000E+03  8.287047E-09  3.999487E-10 -1.507141E-10  8.276018E-09  4.738362E-11  2.286286E-12 -8.615479E-13  4.732059E-11  0.000000E+00  0.000000E+00  0.000000E+00  0.000000E+00  0.000000E+00  0.000000E+00  0.000000E+00  0.000000E+00  8.427061E-03  3.972132E-04 -1.496826E-04  8.416363E-03                                                                                                                                                                                                                                                                                                                                                                                                                                                                                              
  1.435000E+03  1.250000E+02 -4.975000E+03  8.675959E-09  1.893982E-10 -1.610113E-10  8.672397E-09  4.960380E-11  1.082688E-12 -9.204150E-13  4.958344E-11  0.000000E+00  0.000000E+00  0.000000E+00  0.000000E+00  0.000000E+00  0.000000E+00  0.000000E+00  0.000000E+00  8.818887E-03  1.881040E-04 -1.599111E-04  8.815430E-03                                                                                                                                                                                                                                                                                                                                                                                                                                                                                              
  1.250000E+02  1.250000E+02 -4.725000E+03  8.656100E-09 -7.306797E-11 -6.539335E-11  8.655544E-09  4.755216E-11 -4.119342E-13 -3.686698E-13  4.754895E-11  0.000000E+00  0.000000E+00  0.000000E+00  0.000000E+00  0.000000E+00  0.000000E+00  0.000000E+00  0.000000E+00  8.366985E-03 -6.872361E-05 -6.150888E-05  8.366477E-03                                                                                                                                                                                                                                                                                                                                                                                                                                                                                              
  3.750000E+02  1.250000E+02 -4.725000E+03  8.200089E-09 -1.292908E-10 -7.456913E-11  8.198731E-09  4.505674E-11 -7.288489E-13 -4.203422E-13  4.504888E-11  0.000000E+00  0.000000E+00  0.000000E+00  0.000000E+00  0.000000E+00  0.000000E+00  0.000000E+00  0.000000E+00  7.925861E-03 -1.215650E-04 -7.010260E-05  7.924619E-03                                                                                                                                                                                                                                                                                                                                                                                                                                                                                              
  6.250000E+02  1.250000E+02 -4.725000E+03  7.575168E-09  4.492555E-11 -9.362732E-11  7.574456E-09  4.163956E-11  2.531808E-13 -5.276412E-13  4.163544E-11  0.000000E+00  0.000000E+00  0.000000E+00  0.000000E+00  0.000000E+00  0.000000E+00  0.000000E+00  0.000000E+00  7.322293E-03  4.222356E-05 -8.791124E-05  7.321644E-03                                                                                                                                                                                                                                                                                                                                                                                                                                                                                              
  7.600000E+02  1.250000E+02 -4.725000E+03  7.515188E-09  2.189135E-10 -9.398812E-11  7.511411E-09  4.131994E-11  1.233847E-12 -5.297025E-13  4.129812E-11  0.000000E+00  0.000000E+00  0.000000E+00  0.000000E+00  0.000000E+00  0.000000E+00  0.000000E+00  0.000000E+00  7.265526E-03  2.057481E-04 -8.828667E-05  7.262075E-03                                                                                                                                                                                                                                                                                                                                                                                                                                                                                              
  7.800000E+02  1.250000E+02 -4.725000E+03  7.492592E-09  2.536039E-10 -9.456638E-11  7.487702E-09  4.119926E-11  1.429416E-12 -5.329666E-13  4.117101E-11  0.000000E+00  0.000000E+00  0.000000E+00  0.000000E+00  0.000000E+00  0.000000E+00  0.000000E+00  0.000000E+00  7.244085E-03  2.383526E-04 -8.883708E-05  7.239618E-03                                                                                                                                                                                                                                                                                                                                                                                                                                                                                              
  8.000000E+02  1.250000E+02 -4.725000E+03  8.079501E-09  2.706801E-10 -9.581582E-11  8.074397E-09  4.438457E-11  1.525773E-12 -5.400469E-13  4.435505E-11  0.000000E+00  0.000000E+00  0.000000E+00  0.000000E+00  0.000000E+00  0.000000E+00  0.000000E+00  0.000000E+00  7.806697E-03  2.544591E-04 -9.001956E-05  7.802030E-03                                                                                                                                                                                                                                                                                                                                                                                                                                                                                              
  9.350000E+02  1.250000E+02 -4.725000E+03  8.205994E-09  2.850445E-10 -9.889330E-11  8.200446E-09  4.508622E-11  1.606908E-12 -5.574485E-13  4.505413E-11  0.000000E+00  0.000000E+00  0.000000E+00  0.000000E+00  0.000000E+00  0.000000E+00  0.000000E+00  0.000000E+00  7.930534E-03  2.680568E-04 -9.296297E-05  7.925457E-03                                                                                                                                                                                                                                                                                                                                                                                                                                                                                              
  1.185000E+03  1.250000E+02 -4.725000E+03  8.644211E-09  2.871447E-10 -1.175995E-10  8.638640E-09  4.749124E-11  1.618984E-12 -6.629745E-13  4.745901E-11  0.000000E+00  0.000000E+00  0.000000E+00  0.000000E+00  0.000000E+00  0.000000E+00  0.000000E+00  0.000000E+00  8.355666E-03  2.701446E-04 -1.105820E-04  8.350565E-03                                                                                                                                                                                                                                                                                                                                                                                                                                                                                              