Title="TOUGHREACT V3.30-OMP flowvector.tec: Liq & Gas Fluxes (kg/s/m^2), Pore Velocities (m/s), & Heat Fluxes (J/s/m2)"                                                                                                                                                                                                                                                                                                                                                                                                                                                                                                                                                                                                                                                                                                         
Variables= "X(m)"     "Y(m)"      "Z(m)"     "FluxLiq"   "FluxLiq_X"   "FluxLiq_Y"   "FluxLiq_Z"   "PorVelLiq"  "PorVelLiqX"  "PorVelLiqY"  "PorVelLiqZ"     "FluxGas"   "FluxGas_X"   "FluxGas_Y"   "FluxGas_Z"   "PorVelGas"  "PorVelGasX"  "PorVelGasY"  "PorVelGasZ"    "HeatFlux"  "HeatFlux_X"  "HeatFlux_Y"  "HeatFlux_Z"                                                                                                                                                                                                                                                                                                                                                                                                                                                                                                
Zone T= "5.00000000E+10 sec" I=     9 J=    10 K=    23 F=Point
  1.250000E+02  1.250000E+02 -5.425000E+03  3.736916E-09 -1.302776E-11 -4.100836E-11  3.736668E-09  2.192969E-11 -7.740877E-14 -2.436649E-13  2.192820E-11  0.000000E+00  0.000000E+00  0.000000E+00  0.000000E+00  0.000000E+00  0.000000E+00  0.000000E+00  0.000000E+00  4.209189E-03 -1.467422E-05 -4.619104E-05  4.208910E-03                                                                                                                                                                                                                                                                                                                                                                                                                                                                                              
  3.750000E+02  1.250000E+02 -5.425000E+03  3.714871E-09 -1.020147E-12 -4.231441E-11  3.714630E-09  2.180032E-11 -6.061532E-15 -2.514253E-13  2.179887E-11  0.000000E+00  0.000000E+00  0.000000E+00  0.000000E+00  0.000000E+00  0.000000E+00  0.000000E+00  0.000000E+00  4.184360E-03 -1.149075E-06 -4.766219E-05  4.184088E-03                                                                                                                                                                                                                                                                                                                                                                                                                                                                                              
  6.250000E+02  1.250000E+02 -5.425000E+03  3.694995E-09  8.768242E-11 -4.607909E-11  3.693667E-09  2.168384E-11  5.209946E-13 -2.737944E-13  2.167585E-11  0.000000E+00  0.000000E+00  0.000000E+00  0.000000E+00  0.000000E+00  0.000000E+00  0.000000E+00  0.000000E+00  4.161974E-03  9.876387E-05 -5.190269E-05  4.160479E-03                                                                                                                                                                                                                                                                                                                                                                                                                                                                                              
  7.600000E+02  1.250000E+02 -5.425000E+03  3.707045E-09  1.552967E-10 -4.821312E-11  3.703477E-09  2.175489E-11  9.227477E-13 -2.864745E-13  2.173343E-11  0.000000E+00  0.000000E+00  0.000000E+00  0.000000E+00  0.000000E+00  0.000000E+00  0.000000E+00  0.000000E+00  4.175547E-03  1.749234E-04 -5.430641E-05  4.171528E-03                                                                                                                                                                                                                                                                                                                                                                                                                                                                                              
  7.800000E+02  1.250000E+02 -5.425000E+03  3.709048E-09  1.629927E-10 -4.854066E-11  3.705147E-09  2.176670E-11  9.684761E-13 -2.884207E-13  2.174323E-11  0.000000E+00  0.000000E+00  0.000000E+00  0.000000E+00  0.000000E+00  0.000000E+00  0.000000E+00  0.000000E+00  4.177803E-03  1.835920E-04 -5.467534E-05  4.173409E-03                                                                                                                                                                                                                                                                                                                                                                                                                                                                                              
  8.000000E+02  1.250000E+02 -5.425000E+03  3.711246E-09  1.702833E-10 -4.888143E-11  3.707015E-09  2.177964E-11  1.011795E-12 -2.904455E-13  2.175419E-11  0.000000E+00  0.000000E+00  0.000000E+00  0.000000E+00  0.000000E+00  0.000000E+00  0.000000E+00  0.000000E+00  4.180279E-03  1.918039E-04 -5.505918E-05  4.175513E-03                                                                                                                                                                                                                                                                                                                                                                                                                                                                                              
  9.350000E+02  1.250000E+02 -5.425000E+03  3.726365E-09  1.975341E-10 -5.129332E-11  3.720772E-09  2.186857E-11  1.173715E-12 -3.047765E-13  2.183492E-11  0.000000E+00  0.000000E+00  0.000000E+00  0.000000E+00  0.000000E+00  0.000000E+00  0.000000E+00  0.000000E+00  4.197307E-03  2.224987E-04 -5.777586E-05  4.191007E-03                                                                                                                                                                                                                                                                                                                                                                                                                                                                                              
  1.185000E+03  1.250000E+02 -5.425000E+03  3.762608E-09  1.921032E-10 -5.936777E-11  3.757232E-09  2.208124E-11  1.141446E-12 -3.527536E-13  2.204890E-11  0.000000E+00  0.000000E+00  0.000000E+00  0.000000E+00  0.000000E+00  0.000000E+00  0.000000E+00  0.000000E+00  4.238128E-03  2.163813E-04 -6.687072E-05  4.232072E-03                                                                                                                                                                                                                                                                                                                                                                                                                                                                                              
  1.435000E+03  1.250000E+02 -5.425000E+03  3.793611E-09  8.148149E-11 -6.528476E-11  3.792174E-09  2.226260E-11  4.841498E-13 -3.879114E-13  2.225396E-11  0.000000E+00  0.000000E+00  0.000000E+00  0.000000E+00  0.000000E+00  0.000000E+00  0.000000E+00  0.000000E+00  4.273047E-03  9.177915E-05 -7.353546E-05  4.271428E-03                                                                                                                                                                                                                                                                                                                                                                                                                                                                                              
  1.250000E+02  1.250000E+02 -5.225000E+03  7.614907E-09 -2.943506E-11 -5.157040E-11  7.614675E-09  4.425635E-11 -1.705227E-13 -2.987567E-13  4.425501E-11  0.000000E+00  0.000000E+00  0.000000E+00  0.000000E+00  0.000000E+00  0.000000E+00  0.000000E+00  0.000000E+00  8.248796E-03 -3.066201E-05 -5.372001E-05  8.248564E-03                                                                                                                                                                                                                                                                                                                                                                                                                                                                                              
  3.750000E+02  1.250000E+02 -5.225000E+03  7.518624E-09 -3.421446E-11 -5.359509E-11  7.518355E-09  4.369956E-11 -1.982106E-13 -3.104861E-13  4.369801E-11  0.000000E+00  0.000000E+00  0.000000E+00  0.000000E+00  0.000000E+00  0.000000E+00  0.000000E+00  0.000000E+00  8.146634E-03 -3.564063E-05 -5.582913E-05  8.146365E-03                                                                                                                                                                                                                                                                                                                                                                                                                                                                                              
  6.250000E+02  1.250000E+02 -5.225000E+03  7.417777E-09  8.155533E-11 -6.089095E-11  7.417078E-09  4.311662E-11  4.724649E-13 -3.527524E-13  4.311259E-11  0.000000E+00  0.000000E+00  0.000000E+00  0.000000E+00  0.000000E+00  0.000000E+00  0.000000E+00  0.000000E+00  8.039794E-03  8.495484E-05 -6.342915E-05  8.039095E-03                                                                                                                                                                                                                                                                                                                                                                                                                                                                                              
  7.600000E+02  1.250000E+02 -5.225000E+03  7.459490E-09  1.784577E-10 -6.248995E-11  7.457093E-09  4.335790E-11  1.033838E-12 -3.620157E-13  4.334406E-11  0.000000E+00  0.000000E+00  0.000000E+00  0.000000E+00  0.000000E+00  0.000000E+00  0.000000E+00  0.000000E+00  8.084009E-03  1.858965E-04 -6.509480E-05  8.081609E-03                                                                                                                                                                                                                                                                                                                                                                                                                                                                                              
  7.800000E+02  1.250000E+02 -5.225000E+03  7.467043E-09  1.897409E-10 -6.275248E-11  7.464369E-09  4.340158E-11  1.099204E-12 -3.635366E-13  4.338614E-11  0.000000E+00  0.000000E+00  0.000000E+00  0.000000E+00  0.000000E+00  0.000000E+00  0.000000E+00  0.000000E+00  8.092007E-03  1.976500E-04 -6.536827E-05  8.089329E-03                                                                                                                                                                                                                                                                                                                                                                                                                                                                                              
  8.000000E+02  1.250000E+02 -5.225000E+03  7.477456E-09  2.002427E-10 -6.304672E-11  7.474508E-09  4.346175E-11  1.160043E-12 -3.652412E-13  4.344473E-11  0.000000E+00  0.000000E+00  0.000000E+00  0.000000E+00  0.000000E+00  0.000000E+00  0.000000E+00  0.000000E+00  8.103001E-03  2.085895E-04 -6.567478E-05  8.100049E-03                                                                                                                                                                                                                                                                                                                                                                                                                                                                                              
  9.350000E+02  1.250000E+02 -5.225000E+03  7.540074E-09  2.359736E-10 -6.520421E-11  7.536099E-09  4.382382E-11  1.367039E-12 -3.777401E-13  4.380087E-11  0.000000E+00  0.000000E+00  0.000000E+00  0.000000E+00  0.000000E+00  0.000000E+00  0.000000E+00  0.000000E+00  8.169354E-03  2.458099E-04 -6.792219E-05  8.165373E-03                                                                                                                                                                                                                                                                                                                                                                                                                                                                                              
  1.185000E+03  1.250000E+02 -5.225000E+03  7.685833E-09  2.371967E-10 -7.754889E-11  7.681781E-09  4.466711E-11  1.374126E-12 -4.492554E-13  4.464371E-11  0.000000E+00  0.000000E+00  0.000000E+00  0.000000E+00  0.000000E+00  0.000000E+00  0.000000E+00  0.000000E+00  8.324280E-03  2.470842E-04 -8.078150E-05  8.320220E-03                                                                                                                                                                                                                                                                                                                                                                                                                                                                                              
  1.435000E+03  1.250000E+02 -5.225000E+03  7.835544E-09  1.038479E-10 -8.572781E-11  7.834387E-09  4.553295E-11  6.016110E-13 -4.966379E-13  4.552626E-11  0.000000E+00  0.000000E+00  0.000000E+00  0.000000E+00  0.000000E+00  0.000000E+00  0.000000E+00  0.000000E+00  8.483316E-03  1.081769E-04 -8.930146E-05  8.482156E-03                                                                                                                                                                                                                                                                                                                                                                                                                                                                                              
  1.250000E+02  1.250000E+02 -4.975000E+03  8.006450E-09 -9.875580E-11 -1.016372E-10  8.005196E-09  4.577285E-11 -5.644867E-13 -5.809569E-13  4.576568E-11  0.000000E+00  0.000000E+00  0.000000E+00  0.000000E+00  0.000000E+00  0.000000E+00  0.000000E+00  0.000000E+00  8.139362E-03 -9.806870E-05 -1.009301E-04  8.138145E-03                                                                                                                                                                                                                                                                                                                                                                                                                                                                                              
  3.750000E+02  1.250000E+02 -4.975000E+03  7.747701E-09 -1.797080E-10 -1.067591E-10  7.744881E-09  4.429597E-11 -1.027208E-12 -6.102328E-13  4.427986E-11  0.000000E+00  0.000000E+00  0.000000E+00  0.000000E+00  0.000000E+00  0.000000E+00  0.000000E+00  0.000000E+00  7.878746E-03 -1.784574E-04 -1.060163E-04  7.876011E-03                                                                                                                                                                                                                                                                                                                                                                                                                                                                                              
  6.250000E+02  1.250000E+02 -4.975000E+03  7.418068E-09  5.661389E-11 -1.401165E-10  7.416528E-09  4.241570E-11  3.236033E-13 -8.009019E-13  4.240690E-11  0.000000E+00  0.000000E+00  0.000000E+00  0.000000E+00  0.000000E+00  0.000000E+00  0.000000E+00  0.000000E+00  7.547516E-03  5.621978E-05 -1.391408E-04  7.546024E-03                                                                                                                                                                                                                                                                                                                                                                                                                                                                                              
  7.600000E+02  1.250000E+02 -4.975000E+03  7.452992E-09  2.945679E-10 -1.335101E-10  7.445971E-09  4.261662E-11  1.683743E-12 -7.631404E-13  4.257651E-11  0.000000E+00  0.000000E+00  0.000000E+00  0.000000E+00  0.000000E+00  0.000000E+00  0.000000E+00  0.000000E+00  7.583537E-03  2.925174E-04 -1.325806E-04  7.576734E-03                                                                                                                                                                                                                                                                                                                                                                                                                                                                                              
  7.800000E+02  1.250000E+02 -4.975000E+03  7.458428E-09  3.339900E-10 -1.329569E-10  7.449760E-09  4.264798E-11  1.909080E-12 -7.599784E-13  4.259845E-11  0.000000E+00  0.000000E+00  0.000000E+00  0.000000E+00  0.000000E+00  0.000000E+00  0.000000E+00  0.000000E+00  7.589170E-03  3.316652E-04 -1.320313E-04  7.580769E-03                                                                                                                                                                                                                                                                                                                                                                                                                                                                                              
  8.000000E+02  1.250000E+02 -4.975000E+03  7.640806E-09  3.607824E-10 -1.329982E-10  7.631125E-09  4.368557E-11  2.062225E-12 -7.602146E-13  4.363025E-11  0.000000E+00  0.000000E+00  0.000000E+00  0.000000E+00  0.000000E+00  0.000000E+00  0.000000E+00  0.000000E+00  7.770674E-03  3.582716E-04 -1.320724E-04  7.761287E-03                                                                                                                                                                                                                                                                                                                                                                                                                                                                                              
  9.350000E+02  1.250000E+02 -4.975000E+03  7.775357E-09  4.146593E-10 -1.312503E-10  7.763183E-09  4.445419E-11  2.370189E-12 -7.502245E-13  4.438462E-11  0.000000E+00  0.000000E+00  0.000000E+00  0.000000E+00  0.000000E+00  0.000000E+00  0.000000E+00  0.000000E+00  7.906567E-03  4.117748E-04 -1.303371E-04  7.894762E-03                                                                                                                                                                                                                                                                                                                                                                                                                                                                                              
  1.185000E+03  1.250000E+02 -4.975000E+03  8.103183E-09  4.389846E-10 -1.690246E-10  8.089518E-09  4.632653E-11  2.509238E-12 -9.661440E-13  4.624843E-11  0.000000E+00  0.000000E+00  0.000000E+00  0.000000E+00  0.000000E+00  0.000000E+00  0.000000E+00  0.000000E+00  8.237439E-03  4.359330E-04 -1.678491E-04  8.224183E-03                                                                                                                                                                                                                                                                                                                                                                                                                                                                                              
  1.435000E+03  1.250000E+02 -4.975000E+03  8.531226E-09  2.081194E-10 -1.851383E-10  8.526677E-09  4.876931E-11  1.189614E-12 -1.058254E-12  4.874332E-11  0.000000E+00  0.000000E+00  0.000000E+00  0.000000E+00  0.000000E+00  0.000000E+00  0.000000E+00  0.000000E+00  8.668513E-03  2.066736E-04 -1.838522E-04  8.664098E-03                                                                                                                                                                                                                                                                                                                                                                                                                                                                                              
  1.250000E+02  1.250000E+02 -4.725000E+03  8.441576E-09 -7.086322E-11 -6.545357E-11  8.441025E-09  4.636649E-11 -3.994730E-13 -3.689802E-13  4.636330E-11  0.000000E+00  0.000000E+00  0.000000E+00  0.000000E+00  0.000000E+00  0.000000E+00  0.000000E+00  0.000000E+00  8.158047E-03 -6.664127E-05 -6.155745E-05  8.157543E-03                                                                                                                                                                                                                                                                                                                                                                                                                                                                                              
  3.750000E+02  1.250000E+02 -4.725000E+03  7.986867E-09 -1.203700E-10 -7.495246E-11  7.985608E-09  4.387887E-11 -6.785097E-13 -4.224702E-13  4.387159E-11  0.000000E+00  0.000000E+00  0.000000E+00  0.000000E+00  0.000000E+00  0.000000E+00  0.000000E+00  0.000000E+00  7.718375E-03 -1.131648E-04 -7.045409E-05  7.717224E-03                                                                                                                                                                                                                                                                                                                                                                                                                                                                                              
  6.250000E+02  1.250000E+02 -4.725000E+03  7.357677E-09  7.610113E-11 -9.672127E-11  7.356648E-09  4.044068E-11  4.288647E-13 -5.450363E-13  4.043473E-11  0.000000E+00  0.000000E+00  0.000000E+00  0.000000E+00  0.000000E+00  0.000000E+00  0.000000E+00  0.000000E+00  7.111116E-03  7.151532E-05 -9.080596E-05  7.110177E-03                                                                                                                                                                                                                                                                                                                                                                                                                                                                                              
  7.600000E+02  1.250000E+02 -4.725000E+03  7.277447E-09  2.726517E-10 -1.060856E-10  7.271564E-09  4.001643E-11  1.536611E-12 -5.978367E-13  3.998244E-11  0.000000E+00  0.000000E+00  0.000000E+00  0.000000E+00  0.000000E+00  0.000000E+00  0.000000E+00  0.000000E+00  7.035582E-03  2.562231E-04 -9.963858E-05  7.030209E-03                                                                                                                                                                                                                                                                                                                                                                                                                                                                                              
  7.800000E+02  1.250000E+02 -4.725000E+03  7.251982E-09  3.175996E-10 -1.083409E-10  7.244214E-09  3.988130E-11  1.789986E-12 -6.105521E-13  3.983643E-11  0.000000E+00  0.000000E+00  0.000000E+00  0.000000E+00  0.000000E+00  0.000000E+00  0.000000E+00  0.000000E+00  7.011491E-03  2.984631E-04 -1.017650E-04  7.004397E-03                                                                                                                                                                                                                                                                                                                                                                                                                                                                                              
  8.000000E+02  1.250000E+02 -4.725000E+03  7.917375E-09  3.394178E-10 -1.116568E-10  7.909309E-09  4.348375E-11  1.913086E-12 -6.292834E-13  4.343709E-11  0.000000E+00  0.000000E+00  0.000000E+00  0.000000E+00  0.000000E+00  0.000000E+00  0.000000E+00  0.000000E+00  7.647743E-03  3.190376E-04 -1.048897E-04  7.640366E-03                                                                                                                                                                                                                                                                                                                                                                                                                                                                                              
  9.350000E+02  1.250000E+02 -4.725000E+03  8.057052E-09  3.630262E-10 -1.279900E-10  8.047851E-09  4.425918E-11  2.046363E-12 -7.214070E-13  4.420596E-11  0.000000E+00  0.000000E+00  0.000000E+00  0.000000E+00  0.000000E+00  0.000000E+00  0.000000E+00  0.000000E+00  7.784390E-03  3.413478E-04 -1.202998E-04  7.775972E-03                                                                                                                                                                                                                                                                                                                                                                                                                                                                                              
  1.185000E+03  1.250000E+02 -4.725000E+03  8.567064E-09  3.840264E-10 -1.726048E-10  8.556712E-09  4.705485E-11  2.165059E-12 -9.729942E-13  4.699494E-11  0.000000E+00  0.000000E+00  0.000000E+00  0.000000E+00  0.000000E+00  0.000000E+00  0.000000E+00  0.000000E+00  8.278078E-03  3.612466E-04 -1.622845E-04  8.268599E-03                                                                                                                                                                                                                                                                                                                                                                                                                                                                                              