Title="TOUGHREACT V3.30-OMP flowvector.tec: Liq & Gas Fluxes (kg/s/m^2), Pore Velocities (m/s), & Heat Fluxes (J/s/m2)"                                                                                                                                                                                                                                                                                                                                                                                                                                                                                                                                                                                                                                                                                                         
Variables= "X(m)"     "Y(m)"      "Z(m)"     "FluxLiq"   "FluxLiq_X"   "FluxLiq_Y"   "FluxLiq_Z"   "PorVelLiq"  "PorVelLiqX"  "PorVelLiqY"  "PorVelLiqZ"     "FluxGas"   "FluxGas_X"   "FluxGas_Y"   "FluxGas_Z"   "PorVelGas"  "PorVelGasX"  "PorVelGasY"  "PorVelGasZ"    "HeatFlux"  "HeatFlux_X"  "HeatFlux_Y"  "HeatFlux_Z"                                                                                                                                                                                                                                                                                                                                                                                                                                                                                                
Zone T= "7.33000000E+10 sec" I=     9 J=    10 K=    23 F=Point
  1.250000E+02  1.250000E+02 -5.425000E+03  3.800868E-09 -1.609810E-11 -4.103066E-11  3.800613E-09  2.238045E-11 -9.631620E-14 -2.454897E-13  2.237890E-11  0.000000E+00  0.000000E+00  0.000000E+00  0.000000E+00  0.000000E+00  0.000000E+00  0.000000E+00  0.000000E+00  4.363008E-03 -1.847898E-05 -4.709902E-05  4.362714E-03                                                                                                                                                                                                                                                                                                                                                                                                                                                                                              
  3.750000E+02  1.250000E+02 -5.425000E+03  3.778231E-09 -9.629131E-12 -4.198023E-11  3.777986E-09  2.224716E-11 -5.761184E-14 -2.511711E-13  2.224567E-11  0.000000E+00  0.000000E+00  0.000000E+00  0.000000E+00  0.000000E+00  0.000000E+00  0.000000E+00  0.000000E+00  4.337026E-03 -1.105326E-05 -4.818907E-05  4.336744E-03                                                                                                                                                                                                                                                                                                                                                                                                                                                                                              
  6.250000E+02  1.250000E+02 -5.425000E+03  3.756984E-09  7.518940E-11 -4.496802E-11  3.755963E-09  2.212220E-11  4.498643E-13 -2.690473E-13  2.211599E-11  0.000000E+00  0.000000E+00  0.000000E+00  0.000000E+00  0.000000E+00  0.000000E+00  0.000000E+00  0.000000E+00  4.312639E-03  8.630984E-05 -5.161878E-05  4.311466E-03                                                                                                                                                                                                                                                                                                                                                                                                                                                                                              
  7.600000E+02  1.250000E+02 -5.425000E+03  3.767936E-09  1.413367E-10 -4.631480E-11  3.765000E-09  2.218706E-11  8.456289E-13 -2.771052E-13  2.216921E-11  0.000000E+00  0.000000E+00  0.000000E+00  0.000000E+00  0.000000E+00  0.000000E+00  0.000000E+00  0.000000E+00  4.325209E-03  1.622402E-04 -5.316474E-05  4.321839E-03                                                                                                                                                                                                                                                                                                                                                                                                                                                                                              
  7.800000E+02  1.250000E+02 -5.425000E+03  3.769777E-09  1.489309E-10 -4.652551E-11  3.766547E-09  2.219796E-11  8.910660E-13 -2.783659E-13  2.217832E-11  0.000000E+00  0.000000E+00  0.000000E+00  0.000000E+00  0.000000E+00  0.000000E+00  0.000000E+00  0.000000E+00  4.327323E-03  1.709577E-04 -5.340662E-05  4.323614E-03                                                                                                                                                                                                                                                                                                                                                                                                                                                                                              
  8.000000E+02  1.250000E+02 -5.425000E+03  3.771817E-09  1.561071E-10 -4.674896E-11  3.768295E-09  2.221002E-11  9.340016E-13 -2.797028E-13  2.218861E-11  0.000000E+00  0.000000E+00  0.000000E+00  0.000000E+00  0.000000E+00  0.000000E+00  0.000000E+00  0.000000E+00  4.329664E-03  1.791952E-04 -5.366311E-05  4.325621E-03                                                                                                                                                                                                                                                                                                                                                                                                                                                                                              
  9.350000E+02  1.250000E+02 -5.425000E+03  3.785923E-09  1.830483E-10 -4.834616E-11  3.781186E-09  2.229332E-11  1.095193E-12 -2.892590E-13  2.226452E-11  0.000000E+00  0.000000E+00  0.000000E+00  0.000000E+00  0.000000E+00  0.000000E+00  0.000000E+00  0.000000E+00  4.345855E-03  2.101209E-04 -5.549652E-05  4.340417E-03                                                                                                                                                                                                                                                                                                                                                                                                                                                                                              
  1.185000E+03  1.250000E+02 -5.425000E+03  3.819932E-09  1.796668E-10 -5.479346E-11  3.815311E-09  2.249357E-11  1.074961E-12 -3.278338E-13  2.246547E-11  0.000000E+00  0.000000E+00  0.000000E+00  0.000000E+00  0.000000E+00  0.000000E+00  0.000000E+00  0.000000E+00  4.384891E-03  2.062391E-04 -6.289731E-05  4.379587E-03                                                                                                                                                                                                                                                                                                                                                                                                                                                                                              
  1.435000E+03  1.250000E+02 -5.425000E+03  3.849190E-09  7.641084E-11 -5.959693E-11  3.847970E-09  2.266521E-11  4.571723E-13 -3.565733E-13  2.265779E-11  0.000000E+00  0.000000E+00  0.000000E+00  0.000000E+00  0.000000E+00  0.000000E+00  0.000000E+00  0.000000E+00  4.418475E-03  8.771183E-05 -6.841117E-05  4.417074E-03                                                                                                                                                                                                                                                                                                                                                                                                                                                                                              
  1.250000E+02  1.250000E+02 -5.225000E+03  7.738761E-09 -3.223455E-11 -5.117242E-11  7.738525E-09  4.505314E-11 -1.867519E-13 -2.964690E-13  4.505178E-11  0.000000E+00  0.000000E+00  0.000000E+00  0.000000E+00  0.000000E+00  0.000000E+00  0.000000E+00  0.000000E+00  8.465435E-03 -3.358168E-05 -5.331099E-05  8.465200E-03                                                                                                                                                                                                                                                                                                                                                                                                                                                                                              
  3.750000E+02  1.250000E+02 -5.225000E+03  7.641041E-09 -4.275350E-11 -5.280035E-11  7.640739E-09  4.448753E-11 -2.476937E-13 -3.059004E-13  4.448579E-11  0.000000E+00  0.000000E+00  0.000000E+00  0.000000E+00  0.000000E+00  0.000000E+00  0.000000E+00  0.000000E+00  8.361226E-03 -4.454022E-05 -5.500696E-05  8.360926E-03                                                                                                                                                                                                                                                                                                                                                                                                                                                                                              
  6.250000E+02  1.250000E+02 -5.225000E+03  7.536858E-09  6.711064E-11 -5.907110E-11  7.536327E-09  4.388479E-11  3.888076E-13 -3.422301E-13  4.388174E-11  0.000000E+00  0.000000E+00  0.000000E+00  0.000000E+00  0.000000E+00  0.000000E+00  0.000000E+00  0.000000E+00  8.250342E-03  6.991527E-05 -6.153976E-05  8.249816E-03                                                                                                                                                                                                                                                                                                                                                                                                                                                                                              
  7.600000E+02  1.250000E+02 -5.225000E+03  7.574985E-09  1.608613E-10 -5.950818E-11  7.573043E-09  4.410551E-11  9.319551E-13 -3.447625E-13  4.409432E-11  0.000000E+00  0.000000E+00  0.000000E+00  0.000000E+00  0.000000E+00  0.000000E+00  0.000000E+00  0.000000E+00  8.290952E-03  1.675839E-04 -6.199512E-05  8.289026E-03                                                                                                                                                                                                                                                                                                                                                                                                                                                                                              
  7.800000E+02  1.250000E+02 -5.225000E+03  7.581981E-09  1.717804E-10 -5.959336E-11  7.579801E-09  4.414600E-11  9.952153E-13 -3.452560E-13  4.413343E-11  0.000000E+00  0.000000E+00  0.000000E+00  0.000000E+00  0.000000E+00  0.000000E+00  0.000000E+00  0.000000E+00  8.298393E-03  1.789594E-04 -6.208387E-05  8.296231E-03                                                                                                                                                                                                                                                                                                                                                                                                                                                                                              
  8.000000E+02  1.250000E+02 -5.225000E+03  7.591829E-09  1.819352E-10 -5.970546E-11  7.589414E-09  4.420295E-11  1.054048E-12 -3.459055E-13  4.418903E-11  0.000000E+00  0.000000E+00  0.000000E+00  0.000000E+00  0.000000E+00  0.000000E+00  0.000000E+00  0.000000E+00  8.308827E-03  1.895386E-04 -6.220066E-05  8.306432E-03                                                                                                                                                                                                                                                                                                                                                                                                                                                                                              
  9.350000E+02  1.250000E+02 -5.225000E+03  7.650460E-09  2.162967E-10 -6.060338E-11  7.647161E-09  4.454223E-11  1.253123E-12 -3.511077E-13  4.452321E-11  0.000000E+00  0.000000E+00  0.000000E+00  0.000000E+00  0.000000E+00  0.000000E+00  0.000000E+00  0.000000E+00  8.371234E-03  2.253363E-04 -6.313612E-05  8.367962E-03                                                                                                                                                                                                                                                                                                                                                                                                                                                                                              
  1.185000E+03  1.250000E+02 -5.225000E+03  7.785381E-09  2.188278E-10 -7.037097E-11  7.781987E-09  4.532358E-11  1.267788E-12 -4.076969E-13  4.530401E-11  0.000000E+00  0.000000E+00  0.000000E+00  0.000000E+00  0.000000E+00  0.000000E+00  0.000000E+00  0.000000E+00  8.515420E-03  2.279735E-04 -7.331202E-05  8.512052E-03                                                                                                                                                                                                                                                                                                                                                                                                                                                                                              
  1.435000E+03  1.250000E+02 -5.225000E+03  7.923846E-09  9.591764E-11 -7.674414E-11  7.922894E-09  4.612514E-11  5.557032E-13 -4.446206E-13  4.611965E-11  0.000000E+00  0.000000E+00  0.000000E+00  0.000000E+00  0.000000E+00  0.000000E+00  0.000000E+00  0.000000E+00  8.663272E-03  9.992657E-05 -7.995171E-05  8.662326E-03                                                                                                                                                                                                                                                                                                                                                                                                                                                                                              
  1.250000E+02  1.250000E+02 -4.975000E+03  8.115127E-09 -1.015672E-10 -1.013181E-10  8.113859E-09  4.639694E-11 -5.805819E-13 -5.791580E-13  4.638970E-11  0.000000E+00  0.000000E+00  0.000000E+00  0.000000E+00  0.000000E+00  0.000000E+00  0.000000E+00  0.000000E+00  8.250855E-03 -1.008660E-04 -1.006187E-04  8.249625E-03                                                                                                                                                                                                                                                                                                                                                                                                                                                                                              
  3.750000E+02  1.250000E+02 -4.975000E+03  7.855450E-09 -1.893141E-10 -1.059245E-10  7.852454E-09  4.491463E-11 -1.082162E-12 -6.054885E-13  4.489751E-11  0.000000E+00  0.000000E+00  0.000000E+00  0.000000E+00  0.000000E+00  0.000000E+00  0.000000E+00  0.000000E+00  7.989245E-03 -1.880066E-04 -1.051931E-04  7.986340E-03                                                                                                                                                                                                                                                                                                                                                                                                                                                                                              
  6.250000E+02  1.250000E+02 -4.975000E+03  7.522359E-09  3.627139E-11 -1.375434E-10  7.521014E-09  4.301441E-11  2.073349E-13 -7.862274E-13  4.300672E-11  0.000000E+00  0.000000E+00  0.000000E+00  0.000000E+00  0.000000E+00  0.000000E+00  0.000000E+00  0.000000E+00  7.654460E-03  3.602080E-05 -1.365926E-04  7.653157E-03                                                                                                                                                                                                                                                                                                                                                                                                                                                                                              
  7.600000E+02  1.250000E+02 -4.975000E+03  7.548335E-09  2.669223E-10 -1.279027E-10  7.542530E-09  4.316430E-11  1.525787E-12 -7.311196E-13  4.313113E-11  0.000000E+00  0.000000E+00  0.000000E+00  0.000000E+00  0.000000E+00  0.000000E+00  0.000000E+00  0.000000E+00  7.681503E-03  2.650783E-04 -1.270188E-04  7.675877E-03                                                                                                                                                                                                                                                                                                                                                                                                                                                                                              
  7.800000E+02  1.250000E+02 -4.975000E+03  7.552026E-09  3.052668E-10 -1.268767E-10  7.544787E-09  4.318571E-11  1.744973E-12 -7.252549E-13  4.314435E-11  0.000000E+00  0.000000E+00  0.000000E+00  0.000000E+00  0.000000E+00  0.000000E+00  0.000000E+00  0.000000E+00  7.685388E-03  3.031580E-04 -1.260000E-04  7.678373E-03                                                                                                                                                                                                                                                                                                                                                                                                                                                                                              
  8.000000E+02  1.250000E+02 -4.975000E+03  7.733235E-09  3.309825E-10 -1.264244E-10  7.725115E-09  4.421669E-11  1.891972E-12 -7.226700E-13  4.417029E-11  0.000000E+00  0.000000E+00  0.000000E+00  0.000000E+00  0.000000E+00  0.000000E+00  0.000000E+00  0.000000E+00  7.865725E-03  3.286967E-04 -1.255509E-04  7.857852E-03                                                                                                                                                                                                                                                                                                                                                                                                                                                                                              
  9.350000E+02  1.250000E+02 -4.975000E+03  7.855375E-09  3.799868E-10 -1.211972E-10  7.845243E-09  4.491463E-11  2.172095E-12 -6.927908E-13  4.485672E-11  0.000000E+00  0.000000E+00  0.000000E+00  0.000000E+00  0.000000E+00  0.000000E+00  0.000000E+00  0.000000E+00  7.989173E-03  3.773638E-04 -1.203603E-04  7.979348E-03                                                                                                                                                                                                                                                                                                                                                                                                                                                                                              
  1.185000E+03  1.250000E+02 -4.975000E+03  8.152804E-09  4.015343E-10 -1.517100E-10  8.141497E-09  4.661377E-11  2.295272E-12 -8.672115E-13  4.654915E-11  0.000000E+00  0.000000E+00  0.000000E+00  0.000000E+00  0.000000E+00  0.000000E+00  0.000000E+00  0.000000E+00  8.289483E-03  3.987649E-04 -1.506631E-04  8.278515E-03                                                                                                                                                                                                                                                                                                                                                                                                                                                                                              
  1.435000E+03  1.250000E+02 -4.975000E+03  8.541888E-09  1.901673E-10 -1.625499E-10  8.538223E-09  4.883473E-11  1.087047E-12 -9.291789E-13  4.881379E-11  0.000000E+00  0.000000E+00  0.000000E+00  0.000000E+00  0.000000E+00  0.000000E+00  0.000000E+00  0.000000E+00  8.681415E-03  1.888567E-04 -1.614298E-04  8.677860E-03                                                                                                                                                                                                                                                                                                                                                                                                                                                                                              
  1.250000E+02  1.250000E+02 -4.725000E+03  8.526591E-09 -7.237821E-11 -6.507849E-11  8.526036E-09  4.683792E-11 -4.080314E-13 -3.668819E-13  4.683470E-11  0.000000E+00  0.000000E+00  0.000000E+00  0.000000E+00  0.000000E+00  0.000000E+00  0.000000E+00  0.000000E+00  8.241082E-03 -6.807033E-05 -6.120861E-05  8.240574E-03                                                                                                                                                                                                                                                                                                                                                                                                                                                                                              
  3.750000E+02  1.250000E+02 -4.725000E+03  8.073882E-09 -1.276153E-10 -7.420825E-11  8.072532E-09  4.436073E-11 -7.193794E-13 -4.182937E-13  4.435293E-11  0.000000E+00  0.000000E+00  0.000000E+00  0.000000E+00  0.000000E+00  0.000000E+00  0.000000E+00  0.000000E+00  7.803216E-03 -1.199820E-04 -6.975884E-05  7.801982E-03                                                                                                                                                                                                                                                                                                                                                                                                                                                                                              
  6.250000E+02  1.250000E+02 -4.725000E+03  7.452811E-09  4.740757E-11 -9.345583E-11  7.452075E-09  4.096493E-11  2.671618E-13 -5.266575E-13  4.096067E-11  0.000000E+00  0.000000E+00  0.000000E+00  0.000000E+00  0.000000E+00  0.000000E+00  0.000000E+00  0.000000E+00  7.203465E-03  4.455349E-05 -8.774509E-05  7.202793E-03                                                                                                                                                                                                                                                                                                                                                                                                                                                                                              
  7.600000E+02  1.250000E+02 -4.725000E+03  7.391704E-09  2.221621E-10 -9.452833E-11  7.387759E-09  4.063953E-11  1.252116E-12 -5.327294E-13  4.061674E-11  0.000000E+00  0.000000E+00  0.000000E+00  0.000000E+00  0.000000E+00  0.000000E+00  0.000000E+00  0.000000E+00  7.145655E-03  2.087882E-04 -8.878876E-05  7.142052E-03                                                                                                                                                                                                                                                                                                                                                                                                                                                                                              
  7.800000E+02  1.250000E+02 -4.725000E+03  7.369020E-09  2.573991E-10 -9.523756E-11  7.363907E-09  4.051844E-11  1.450759E-12 -5.367315E-13  4.048890E-11  0.000000E+00  0.000000E+00  0.000000E+00  0.000000E+00  0.000000E+00  0.000000E+00  0.000000E+00  0.000000E+00  7.124136E-03  2.419044E-04 -8.946217E-05  7.119466E-03                                                                                                                                                                                                                                                                                                                                                                                                                                                                                              
  8.000000E+02  1.250000E+02 -4.725000E+03  7.958802E-09  2.747125E-10 -9.664636E-11  7.953473E-09  4.371860E-11  1.548450E-12 -5.447098E-13  4.368778E-11  0.000000E+00  0.000000E+00  0.000000E+00  0.000000E+00  0.000000E+00  0.000000E+00  0.000000E+00  0.000000E+00  7.689339E-03  2.582333E-04 -9.079430E-05  7.684466E-03                                                                                                                                                                                                                                                                                                                                                                                                                                                                                              
  9.350000E+02  1.250000E+02 -4.725000E+03  8.085022E-09  2.898053E-10 -1.008031E-10  8.079197E-09  4.441880E-11  1.633691E-12 -5.681943E-13  4.438511E-11  0.000000E+00  0.000000E+00  0.000000E+00  0.000000E+00  0.000000E+00  0.000000E+00  0.000000E+00  0.000000E+00  7.812891E-03  2.725161E-04 -9.475217E-05  7.807562E-03                                                                                                                                                                                                                                                                                                                                                                                                                                                                                              
  1.185000E+03  1.250000E+02 -4.725000E+03  8.526348E-09  2.935004E-10 -1.217323E-10  8.520426E-09  4.684043E-11  1.654761E-12 -6.862499E-13  4.680616E-11  0.000000E+00  0.000000E+00  0.000000E+00  0.000000E+00  0.000000E+00  0.000000E+00  0.000000E+00  0.000000E+00  8.240891E-03  2.761056E-04 -1.144608E-04  8.235469E-03                                                                                                                                                                                                                                                                                                                                                                                                                                                                                              