Title="TOUGHREACT V3.30-OMP flowvector.tec: Liq & Gas Fluxes (kg/s/m^2), Pore Velocities (m/s), & Heat Fluxes (J/s/m2)"                                                                                                                                                                                                                                                                                                                                                                                                                                                                                                                                                                                                                                                                                                         
Variables= "X(m)"     "Y(m)"      "Z(m)"     "FluxLiq"   "FluxLiq_X"   "FluxLiq_Y"   "FluxLiq_Z"   "PorVelLiq"  "PorVelLiqX"  "PorVelLiqY"  "PorVelLiqZ"     "FluxGas"   "FluxGas_X"   "FluxGas_Y"   "FluxGas_Z"   "PorVelGas"  "PorVelGasX"  "PorVelGasY"  "PorVelGasZ"    "HeatFlux"  "HeatFlux_X"  "HeatFlux_Y"  "HeatFlux_Z"                                                                                                                                                                                                                                                                                                                                                                                                                                                                                                
Zone T= "8.00000000E+10 sec" I=     9 J=    10 K=    23 F=Point
  1.250000E+02  1.250000E+02 -5.425000E+03  3.820502E-09 -1.635801E-11 -4.118697E-11  3.820245E-09  2.251821E-11 -9.806921E-14 -2.469233E-13  2.251664E-11  0.000000E+00  0.000000E+00  0.000000E+00  0.000000E+00  0.000000E+00  0.000000E+00  0.000000E+00  0.000000E+00  4.409274E-03 -1.887893E-05 -4.753426E-05  4.408977E-03                                                                                                                                                                                                                                                                                                                                                                                                                                                                                              
  3.750000E+02  1.250000E+02 -5.425000E+03  3.797674E-09 -1.021413E-11 -4.215744E-11  3.797426E-09  2.238366E-11 -6.123553E-14 -2.527414E-13  2.238215E-11  0.000000E+00  0.000000E+00  0.000000E+00  0.000000E+00  0.000000E+00  0.000000E+00  0.000000E+00  0.000000E+00  4.382930E-03 -1.178822E-05 -4.865432E-05  4.382644E-03                                                                                                                                                                                                                                                                                                                                                                                                                                                                                              
  6.250000E+02  1.250000E+02 -5.425000E+03  3.776230E-09  7.482404E-11 -4.512986E-11  3.775219E-09  2.225742E-11  4.485836E-13 -2.705617E-13  2.225126E-11  0.000000E+00  0.000000E+00  0.000000E+00  0.000000E+00  0.000000E+00  0.000000E+00  0.000000E+00  0.000000E+00  4.358184E-03  8.635515E-05 -5.208486E-05  4.357017E-03                                                                                                                                                                                                                                                                                                                                                                                                                                                                                              
  7.600000E+02  1.250000E+02 -5.425000E+03  3.787179E-09  1.412581E-10 -4.644007E-11  3.784259E-09  2.232235E-11  8.468678E-13 -2.784167E-13  2.230454E-11  0.000000E+00  0.000000E+00  0.000000E+00  0.000000E+00  0.000000E+00  0.000000E+00  0.000000E+00  0.000000E+00  4.370820E-03  1.630273E-04 -5.359697E-05  4.367450E-03                                                                                                                                                                                                                                                                                                                                                                                                                                                                                              
  7.800000E+02  1.250000E+02 -5.425000E+03  3.789022E-09  1.488664E-10 -4.664451E-11  3.785809E-09  2.233327E-11  8.924811E-13 -2.796423E-13  2.231368E-11  0.000000E+00  0.000000E+00  0.000000E+00  0.000000E+00  0.000000E+00  0.000000E+00  0.000000E+00  0.000000E+00  4.372946E-03  1.718081E-04 -5.383292E-05  4.369238E-03                                                                                                                                                                                                                                                                                                                                                                                                                                                                                              
  8.000000E+02  1.250000E+02 -5.425000E+03  3.791065E-09  1.560758E-10 -4.686140E-11  3.787561E-09  2.234537E-11  9.357028E-13 -2.809426E-13  2.232401E-11  0.000000E+00  0.000000E+00  0.000000E+00  0.000000E+00  0.000000E+00  0.000000E+00  0.000000E+00  0.000000E+00  4.375304E-03  1.801286E-04 -5.408323E-05  4.371260E-03                                                                                                                                                                                                                                                                                                                                                                                                                                                                                              
  9.350000E+02  1.250000E+02 -5.425000E+03  3.805207E-09  1.831991E-10 -4.841133E-11  3.800486E-09  2.242898E-11  1.098312E-12 -2.902347E-13  2.240019E-11  0.000000E+00  0.000000E+00  0.000000E+00  0.000000E+00  0.000000E+00  0.000000E+00  0.000000E+00  0.000000E+00  4.391624E-03  2.114318E-04 -5.587200E-05  4.386176E-03                                                                                                                                                                                                                                                                                                                                                                                                                                                                                              
  1.185000E+03  1.250000E+02 -5.425000E+03  3.839245E-09  1.799467E-10 -5.481126E-11  3.834634E-09  2.262959E-11  1.078813E-12 -3.286034E-13  2.260148E-11  0.000000E+00  0.000000E+00  0.000000E+00  0.000000E+00  0.000000E+00  0.000000E+00  0.000000E+00  0.000000E+00  4.430905E-03  2.076780E-04 -6.325816E-05  4.425583E-03                                                                                                                                                                                                                                                                                                                                                                                                                                                                                              
  1.435000E+03  1.250000E+02 -5.425000E+03  3.868577E-09  7.653486E-11 -5.959525E-11  3.867361E-09  2.280181E-11  4.588404E-13 -3.572843E-13  2.279439E-11  0.000000E+00  0.000000E+00  0.000000E+00  0.000000E+00  0.000000E+00  0.000000E+00  0.000000E+00  0.000000E+00  4.464756E-03  8.832953E-05 -6.877937E-05  4.463352E-03                                                                                                                                                                                                                                                                                                                                                                                                                                                                                              
  1.250000E+02  1.250000E+02 -5.225000E+03  7.778236E-09 -3.244485E-11 -5.122892E-11  7.778000E-09  4.530544E-11 -1.879734E-13 -2.968013E-13  4.530408E-11  0.000000E+00  0.000000E+00  0.000000E+00  0.000000E+00  0.000000E+00  0.000000E+00  0.000000E+00  0.000000E+00  8.532515E-03 -3.380195E-05 -5.337174E-05  8.532281E-03                                                                                                                                                                                                                                                                                                                                                                                                                                                                                              
  3.750000E+02  1.250000E+02 -5.225000E+03  7.680026E-09 -4.329165E-11 -5.284573E-11  7.679722E-09  4.473684E-11 -2.508157E-13 -3.061684E-13  4.473509E-11  0.000000E+00  0.000000E+00  0.000000E+00  0.000000E+00  0.000000E+00  0.000000E+00  0.000000E+00  0.000000E+00  8.427630E-03 -4.510245E-05 -5.505616E-05  8.427329E-03                                                                                                                                                                                                                                                                                                                                                                                                                                                                                              
  6.250000E+02  1.250000E+02 -5.225000E+03  7.575265E-09  6.647706E-11 -5.907934E-11  7.574742E-09  4.413061E-11  3.851433E-13 -3.422836E-13  4.412760E-11  0.000000E+00  0.000000E+00  0.000000E+00  0.000000E+00  0.000000E+00  0.000000E+00  0.000000E+00  0.000000E+00  8.315982E-03  6.925763E-05 -6.155049E-05  8.315466E-03                                                                                                                                                                                                                                                                                                                                                                                                                                                                                              
  7.600000E+02  1.250000E+02 -5.225000E+03  7.613336E-09  1.602514E-10 -5.945617E-11  7.611417E-09  4.435106E-11  9.284369E-13 -3.444669E-13  4.434001E-11  0.000000E+00  0.000000E+00  0.000000E+00  0.000000E+00  0.000000E+00  0.000000E+00  0.000000E+00  0.000000E+00  8.356588E-03  1.669544E-04 -6.194310E-05  8.354691E-03                                                                                                                                                                                                                                                                                                                                                                                                                                                                                              
  7.800000E+02  1.250000E+02 -5.225000E+03  7.620329E-09  1.711734E-10 -5.953214E-11  7.618174E-09  4.439154E-11  9.917153E-13 -3.449070E-13  4.437912E-11  0.000000E+00  0.000000E+00  0.000000E+00  0.000000E+00  0.000000E+00  0.000000E+00  0.000000E+00  0.000000E+00  8.364036E-03  1.783333E-04 -6.202225E-05  8.361905E-03                                                                                                                                                                                                                                                                                                                                                                                                                                                                                              
  8.000000E+02  1.250000E+02 -5.225000E+03  7.630180E-09  1.813307E-10 -5.963478E-11  7.627792E-09  4.444851E-11  1.050563E-12 -3.455017E-13  4.443475E-11  0.000000E+00  0.000000E+00  0.000000E+00  0.000000E+00  0.000000E+00  0.000000E+00  0.000000E+00  0.000000E+00  8.374483E-03  1.889155E-04 -6.212919E-05  8.372122E-03                                                                                                                                                                                                                                                                                                                                                                                                                                                                                              
  9.350000E+02  1.250000E+02 -5.225000E+03  7.688825E-09  2.156982E-10 -6.046705E-11  7.685561E-09  4.478796E-11  1.249676E-12 -3.503237E-13  4.476915E-11  0.000000E+00  0.000000E+00  0.000000E+00  0.000000E+00  0.000000E+00  0.000000E+00  0.000000E+00  0.000000E+00  8.436989E-03  2.247206E-04 -6.299629E-05  8.433761E-03                                                                                                                                                                                                                                                                                                                                                                                                                                                                                              
  1.185000E+03  1.250000E+02 -5.225000E+03  7.823639E-09  2.183151E-10 -7.011444E-11  7.820278E-09  4.556890E-11  1.264839E-12 -4.062176E-13  4.554954E-11  0.000000E+00  0.000000E+00  0.000000E+00  0.000000E+00  0.000000E+00  0.000000E+00  0.000000E+00  0.000000E+00  8.581283E-03  2.274474E-04 -7.304735E-05  8.577957E-03                                                                                                                                                                                                                                                                                                                                                                                                                                                                                              
  1.435000E+03  1.250000E+02 -5.225000E+03  7.962053E-09  9.570179E-11 -7.640166E-11  7.961112E-09  4.637039E-11  5.544619E-13 -4.426439E-13  4.636496E-11  0.000000E+00  0.000000E+00  0.000000E+00  0.000000E+00  0.000000E+00  0.000000E+00  0.000000E+00  0.000000E+00  8.729304E-03  9.970524E-05 -7.959775E-05  8.728371E-03                                                                                                                                                                                                                                                                                                                                                                                                                                                                                              
  1.250000E+02  1.250000E+02 -4.975000E+03  8.152980E-09 -1.018271E-10 -1.014015E-10  8.151713E-09  4.661403E-11 -5.820734E-13 -5.796409E-13  4.660679E-11  0.000000E+00  0.000000E+00  0.000000E+00  0.000000E+00  0.000000E+00  0.000000E+00  0.000000E+00  0.000000E+00  8.289627E-03 -1.011257E-04 -1.007032E-04  8.288398E-03                                                                                                                                                                                                                                                                                                                                                                                                                                                                                              
  3.750000E+02  1.250000E+02 -4.975000E+03  7.892618E-09 -1.900196E-10 -1.059904E-10  7.889619E-09  4.512778E-11 -1.086207E-12 -6.058713E-13  4.511064E-11  0.000000E+00  0.000000E+00  0.000000E+00  0.000000E+00  0.000000E+00  0.000000E+00  0.000000E+00  0.000000E+00  8.027315E-03 -1.887103E-04 -1.052602E-04  8.024406E-03                                                                                                                                                                                                                                                                                                                                                                                                                                                                                              
  6.250000E+02  1.250000E+02 -4.975000E+03  7.558604E-09  3.528306E-11 -1.375568E-10  7.557270E-09  4.322225E-11  2.016875E-13 -7.863122E-13  4.321462E-11  0.000000E+00  0.000000E+00  0.000000E+00  0.000000E+00  0.000000E+00  0.000000E+00  0.000000E+00  0.000000E+00  7.691585E-03  3.503985E-05 -1.366080E-04  7.690292E-03                                                                                                                                                                                                                                                                                                                                                                                                                                                                                              
  7.600000E+02  1.250000E+02 -4.975000E+03  7.584229E-09  2.658325E-10 -1.277490E-10  7.578492E-09  4.337014E-11  1.519573E-12 -7.302484E-13  4.333736E-11  0.000000E+00  0.000000E+00  0.000000E+00  0.000000E+00  0.000000E+00  0.000000E+00  0.000000E+00  0.000000E+00  7.718280E-03  2.640002E-04 -1.268681E-04  7.712720E-03                                                                                                                                                                                                                                                                                                                                                                                                                                                                                              
  7.800000E+02  1.250000E+02 -4.975000E+03  7.587850E-09  3.041698E-10 -1.266974E-10  7.580692E-09  4.339116E-11  1.738720E-12 -7.242375E-13  4.335026E-11  0.000000E+00  0.000000E+00  0.000000E+00  0.000000E+00  0.000000E+00  0.000000E+00  0.000000E+00  0.000000E+00  7.722096E-03  3.020734E-04 -1.258239E-04  7.715160E-03                                                                                                                                                                                                                                                                                                                                                                                                                                                                                              
  8.000000E+02  1.250000E+02 -4.975000E+03  7.769239E-09  3.298633E-10 -1.262192E-10  7.761207E-09  4.442318E-11  1.885593E-12 -7.215042E-13  4.437728E-11  0.000000E+00  0.000000E+00  0.000000E+00  0.000000E+00  0.000000E+00  0.000000E+00  0.000000E+00  0.000000E+00  7.902616E-03  3.275905E-04 -1.253491E-04  7.894828E-03                                                                                                                                                                                                                                                                                                                                                                                                                                                                                              
  9.350000E+02  1.250000E+02 -4.975000E+03  7.891077E-09  3.786733E-10 -1.208064E-10  7.881060E-09  4.511941E-11  2.164609E-12 -6.905639E-13  4.506217E-11  0.000000E+00  0.000000E+00  0.000000E+00  0.000000E+00  0.000000E+00  0.000000E+00  0.000000E+00  0.000000E+00  8.025768E-03  3.760653E-04 -1.199741E-04  8.016055E-03                                                                                                                                                                                                                                                                                                                                                                                                                                                                                              
  1.185000E+03  1.250000E+02 -4.975000E+03  8.187642E-09  4.001076E-10 -1.509614E-10  8.176466E-09  4.681367E-11  2.287140E-12 -8.629415E-13  4.674980E-11  0.000000E+00  0.000000E+00  0.000000E+00  0.000000E+00  0.000000E+00  0.000000E+00  0.000000E+00  0.000000E+00  8.325223E-03  3.973545E-04 -1.499221E-04  8.314384E-03                                                                                                                                                                                                                                                                                                                                                                                                                                                                                              
  1.435000E+03  1.250000E+02 -4.975000E+03  8.575614E-09  1.894847E-10 -1.615067E-10  8.571999E-09  4.902836E-11  1.083157E-12 -9.232255E-13  4.900769E-11  0.000000E+00  0.000000E+00  0.000000E+00  0.000000E+00  0.000000E+00  0.000000E+00  0.000000E+00  0.000000E+00  8.716056E-03  1.881820E-04 -1.603965E-04  8.712548E-03                                                                                                                                                                                                                                                                                                                                                                                                                                                                                              
  1.250000E+02  1.250000E+02 -4.725000E+03  8.560733E-09 -7.259939E-11 -6.515290E-11  8.560177E-09  4.702637E-11 -4.092827E-13 -3.673054E-13  4.702316E-11  0.000000E+00  0.000000E+00  0.000000E+00  0.000000E+00  0.000000E+00  0.000000E+00  0.000000E+00  0.000000E+00  8.274296E-03 -6.827964E-05 -6.127976E-05  8.273788E-03                                                                                                                                                                                                                                                                                                                                                                                                                                                                                              
  3.750000E+02  1.250000E+02 -4.725000E+03  8.107217E-09 -1.282501E-10 -7.428162E-11  8.105862E-09  4.454471E-11 -7.229653E-13 -4.187116E-13  4.453688E-11  0.000000E+00  0.000000E+00  0.000000E+00  0.000000E+00  0.000000E+00  0.000000E+00  0.000000E+00  0.000000E+00  7.835631E-03 -1.205810E-04 -6.982909E-05  7.834392E-03                                                                                                                                                                                                                                                                                                                                                                                                                                                                                              
  6.250000E+02  1.250000E+02 -4.725000E+03  7.485386E-09  4.595885E-11 -9.340664E-11  7.484662E-09  4.114461E-11  2.589992E-13 -5.263856E-13  4.114043E-11  0.000000E+00  0.000000E+00  0.000000E+00  0.000000E+00  0.000000E+00  0.000000E+00  0.000000E+00  0.000000E+00  7.235111E-03  4.319277E-05 -8.770036E-05  7.234451E-03                                                                                                                                                                                                                                                                                                                                                                                                                                                                                              
  7.600000E+02  1.250000E+02 -4.725000E+03  7.425110E-09  2.198964E-10 -9.405936E-11  7.421257E-09  4.082351E-11  1.239358E-12 -5.300919E-13  4.080125E-11  0.000000E+00  0.000000E+00  0.000000E+00  0.000000E+00  0.000000E+00  0.000000E+00  0.000000E+00  0.000000E+00  7.178072E-03  2.066626E-04 -8.834978E-05  7.174552E-03                                                                                                                                                                                                                                                                                                                                                                                                                                                                                              
  7.800000E+02  1.250000E+02 -4.725000E+03  7.402530E-09  2.547165E-10 -9.469077E-11  7.397540E-09  4.070293E-11  1.435654E-12 -5.336554E-13  4.067410E-11  0.000000E+00  0.000000E+00  0.000000E+00  0.000000E+00  0.000000E+00  0.000000E+00  0.000000E+00  0.000000E+00  7.156648E-03  2.393876E-04 -8.895007E-05  7.152090E-03                                                                                                                                                                                                                                                                                                                                                                                                                                                                                              
  8.000000E+02  1.250000E+02 -4.725000E+03  7.989400E-09  2.718429E-10 -9.600415E-11  7.984197E-09  4.388771E-11  1.532291E-12 -5.410958E-13  4.385762E-11  0.000000E+00  0.000000E+00  0.000000E+00  0.000000E+00  0.000000E+00  0.000000E+00  0.000000E+00  0.000000E+00  7.719142E-03  2.555405E-04 -9.019254E-05  7.714384E-03                                                                                                                                                                                                                                                                                                                                                                                                                                                                                              
  9.350000E+02  1.250000E+02 -4.725000E+03  8.115311E-09  2.865284E-10 -9.953644E-11  8.109641E-09  4.458616E-11  1.615235E-12 -5.610605E-13  4.455336E-11  0.000000E+00  0.000000E+00  0.000000E+00  0.000000E+00  0.000000E+00  0.000000E+00  0.000000E+00  0.000000E+00  7.842398E-03  2.694396E-04 -9.356326E-05  7.837210E-03                                                                                                                                                                                                                                                                                                                                                                                                                                                                                              
  1.185000E+03  1.250000E+02 -4.725000E+03  8.553892E-09  2.893723E-10 -1.192149E-10  8.548164E-09  4.699293E-11  1.631504E-12 -6.720655E-13  4.695979E-11  0.000000E+00  0.000000E+00  0.000000E+00  0.000000E+00  0.000000E+00  0.000000E+00  0.000000E+00  0.000000E+00  8.267798E-03  2.722272E-04 -1.120959E-04  8.262555E-03                                                                                                                                                                                                                                                                                                                                                                                                                                                                                              