Title="TOUGHREACT V3.30-OMP flowvector.tec: Liq & Gas Fluxes (kg/s/m^2), Pore Velocities (m/s), & Heat Fluxes (J/s/m2)"                                                                                                                                                                                                                                                                                                                                                                                                                                                                                                                                                                                                                                                                                                         
Variables= "X(m)"     "Y(m)"      "Z(m)"     "FluxLiq"   "FluxLiq_X"   "FluxLiq_Y"   "FluxLiq_Z"   "PorVelLiq"  "PorVelLiqX"  "PorVelLiqY"  "PorVelLiqZ"     "FluxGas"   "FluxGas_X"   "FluxGas_Y"   "FluxGas_Z"   "PorVelGas"  "PorVelGasX"  "PorVelGasY"  "PorVelGasZ"    "HeatFlux"  "HeatFlux_X"  "HeatFlux_Y"  "HeatFlux_Z"                                                                                                                                                                                                                                                                                                                                                                                                                                                                                                
Zone T= "7.00000000E+10 sec" I=     9 J=    10 K=    23 F=Point
  1.250000E+02  1.250000E+02 -5.425000E+03  3.791409E-09 -1.590736E-11 -4.093393E-11  3.791155E-09  2.231399E-11 -9.508084E-14 -2.446686E-13  2.231245E-11  0.000000E+00  0.000000E+00  0.000000E+00  0.000000E+00  0.000000E+00  0.000000E+00  0.000000E+00  0.000000E+00  4.340567E-03 -1.821143E-05 -4.686292E-05  4.340275E-03                                                                                                                                                                                                                                                                                                                                                                                                                                                                                              
  3.750000E+02  1.250000E+02 -5.425000E+03  3.768840E-09 -9.216861E-12 -4.192674E-11  3.768595E-09  2.218116E-11 -5.509065E-14 -2.506029E-13  2.217967E-11  0.000000E+00  0.000000E+00  0.000000E+00  0.000000E+00  0.000000E+00  0.000000E+00  0.000000E+00  0.000000E+00  4.314731E-03 -1.055186E-05 -4.799957E-05  4.314451E-03                                                                                                                                                                                                                                                                                                                                                                                                                                                                                              
  6.250000E+02  1.250000E+02 -5.425000E+03  3.747728E-09  7.558615E-11 -4.492428E-11  3.746697E-09  2.205705E-11  4.517907E-13 -2.685197E-13  2.205079E-11  0.000000E+00  0.000000E+00  0.000000E+00  0.000000E+00  0.000000E+00  0.000000E+00  0.000000E+00  0.000000E+00  4.290564E-03  8.653433E-05 -5.143132E-05  4.289383E-03                                                                                                                                                                                                                                                                                                                                                                                                                                                                                              
  7.600000E+02  1.250000E+02 -5.425000E+03  3.758693E-09  1.416750E-10 -4.629845E-11  3.755737E-09  2.212194E-11  8.468145E-13 -2.767333E-13  2.210400E-11  0.000000E+00  0.000000E+00  0.000000E+00  0.000000E+00  0.000000E+00  0.000000E+00  0.000000E+00  0.000000E+00  4.303116E-03  1.621957E-04 -5.300452E-05  4.299731E-03                                                                                                                                                                                                                                                                                                                                                                                                                                                                                              
  7.800000E+02  1.250000E+02 -5.425000E+03  3.760536E-09  1.492323E-10 -4.651251E-11  3.757286E-09  2.213285E-11  8.919859E-13 -2.780129E-13  2.211312E-11  0.000000E+00  0.000000E+00  0.000000E+00  0.000000E+00  0.000000E+00  0.000000E+00  0.000000E+00  0.000000E+00  4.305226E-03  1.708477E-04 -5.324959E-05  4.301505E-03                                                                                                                                                                                                                                                                                                                                                                                                                                                                                              
  8.000000E+02  1.250000E+02 -5.425000E+03  3.762574E-09  1.563733E-10 -4.673801E-11  3.759033E-09  2.214490E-11  9.346688E-13 -2.793607E-13  2.212340E-11  0.000000E+00  0.000000E+00  0.000000E+00  0.000000E+00  0.000000E+00  0.000000E+00  0.000000E+00  0.000000E+00  4.307559E-03  1.790230E-04 -5.350775E-05  4.303504E-03                                                                                                                                                                                                                                                                                                                                                                                                                                                                                              
  9.350000E+02  1.250000E+02 -5.425000E+03  3.776701E-09  1.833101E-10 -4.835593E-11  3.771940E-09  2.222827E-11  1.095674E-12 -2.890313E-13  2.219936E-11  0.000000E+00  0.000000E+00  0.000000E+00  0.000000E+00  0.000000E+00  0.000000E+00  0.000000E+00  0.000000E+00  4.323730E-03  2.098613E-04 -5.536000E-05  4.318280E-03                                                                                                                                                                                                                                                                                                                                                                                                                                                                                              
  1.185000E+03  1.250000E+02 -5.425000E+03  3.810692E-09  1.798603E-10 -5.486225E-11  3.806050E-09  2.242831E-11  1.075054E-12 -3.279206E-13  2.240013E-11  0.000000E+00  0.000000E+00  0.000000E+00  0.000000E+00  0.000000E+00  0.000000E+00  0.000000E+00  0.000000E+00  4.362642E-03  2.059118E-04 -6.280866E-05  4.357327E-03                                                                                                                                                                                                                                                                                                                                                                                                                                                                                              
  1.435000E+03  1.250000E+02 -5.425000E+03  3.839949E-09  7.647054E-11 -5.973265E-11  3.838723E-09  2.259989E-11  4.570769E-13 -3.570318E-13  2.259244E-11  0.000000E+00  0.000000E+00  0.000000E+00  0.000000E+00  0.000000E+00  0.000000E+00  0.000000E+00  0.000000E+00  4.396135E-03  8.754673E-05 -6.838446E-05  4.394731E-03                                                                                                                                                                                                                                                                                                                                                                                                                                                                                              
  1.250000E+02  1.250000E+02 -5.225000E+03  7.719870E-09 -3.208988E-11 -5.115212E-11  7.719634E-09  4.493222E-11 -1.859122E-13 -2.963489E-13  4.493086E-11  0.000000E+00  0.000000E+00  0.000000E+00  0.000000E+00  0.000000E+00  0.000000E+00  0.000000E+00  0.000000E+00  8.433100E-03 -3.343041E-05 -5.328896E-05  8.432866E-03                                                                                                                                                                                                                                                                                                                                                                                                                                                                                              
  3.750000E+02  1.250000E+02 -5.225000E+03  7.622359E-09 -4.236087E-11 -5.279615E-11  7.622059E-09  4.436789E-11 -2.454170E-13 -3.058736E-13  4.436616E-11  0.000000E+00  0.000000E+00  0.000000E+00  0.000000E+00  0.000000E+00  0.000000E+00  0.000000E+00  0.000000E+00  8.329188E-03 -4.413046E-05 -5.500168E-05  8.328889E-03                                                                                                                                                                                                                                                                                                                                                                                                                                                                                              
  6.250000E+02  1.250000E+02 -5.225000E+03  7.518516E-09  6.766123E-11 -5.910367E-11  7.517979E-09  4.376720E-11  3.919942E-13 -3.424161E-13  4.376410E-11  0.000000E+00  0.000000E+00  0.000000E+00  0.000000E+00  0.000000E+00  0.000000E+00  0.000000E+00  0.000000E+00  8.218740E-03  7.048772E-05 -6.157270E-05  8.218208E-03                                                                                                                                                                                                                                                                                                                                                                                                                                                                                              
  7.600000E+02  1.250000E+02 -5.225000E+03  7.556729E-09  1.614693E-10 -5.958887E-11  7.554769E-09  4.398839E-11  9.354699E-13 -3.452271E-13  4.397709E-11  0.000000E+00  0.000000E+00  0.000000E+00  0.000000E+00  0.000000E+00  0.000000E+00  0.000000E+00  0.000000E+00  8.259413E-03  1.682146E-04 -6.207818E-05  8.257467E-03                                                                                                                                                                                                                                                                                                                                                                                                                                                                                              
  7.800000E+02  1.250000E+02 -5.225000E+03  7.563740E-09  1.723938E-10 -5.968137E-11  7.561540E-09  4.402896E-11  9.987611E-13 -3.457631E-13  4.401627E-11  0.000000E+00  0.000000E+00  0.000000E+00  0.000000E+00  0.000000E+00  0.000000E+00  0.000000E+00  0.000000E+00  8.266865E-03  1.795955E-04 -6.217455E-05  8.264680E-03                                                                                                                                                                                                                                                                                                                                                                                                                                                                                              
  8.000000E+02  1.250000E+02 -5.225000E+03  7.573596E-09  1.825538E-10 -5.980095E-11  7.571160E-09  4.408594E-11  1.057623E-12 -3.464558E-13  4.407189E-11  0.000000E+00  0.000000E+00  0.000000E+00  0.000000E+00  0.000000E+00  0.000000E+00  0.000000E+00  0.000000E+00  8.277302E-03  1.901800E-04 -6.229911E-05  8.274882E-03                                                                                                                                                                                                                                                                                                                                                                                                                                                                                              
  9.350000E+02  1.250000E+02 -5.225000E+03  7.632316E-09  2.169490E-10 -6.075029E-11  7.628990E-09  4.442570E-11  1.256892E-12 -3.519559E-13  4.440652E-11  0.000000E+00  0.000000E+00  0.000000E+00  0.000000E+00  0.000000E+00  0.000000E+00  0.000000E+00  0.000000E+00  8.339764E-03  2.260121E-04 -6.328813E-05  8.336461E-03                                                                                                                                                                                                                                                                                                                                                                                                                                                                                              
  1.185000E+03  1.250000E+02 -5.225000E+03  7.767444E-09  2.194268E-10 -7.062114E-11  7.764023E-09  4.520814E-11  1.271247E-12 -4.091429E-13  4.518841E-11  0.000000E+00  0.000000E+00  0.000000E+00  0.000000E+00  0.000000E+00  0.000000E+00  0.000000E+00  0.000000E+00  8.484057E-03  2.285937E-04 -7.357143E-05  8.480658E-03                                                                                                                                                                                                                                                                                                                                                                                                                                                                                              
  1.435000E+03  1.250000E+02 -5.225000E+03  7.906148E-09  9.617481E-11 -7.707482E-11  7.905188E-09  4.601097E-11  5.571885E-13 -4.465328E-13  4.600543E-11  0.000000E+00  0.000000E+00  0.000000E+00  0.000000E+00  0.000000E+00  0.000000E+00  0.000000E+00  0.000000E+00  8.632055E-03  1.001928E-04 -8.029488E-05  8.631100E-03                                                                                                                                                                                                                                                                                                                                                                                                                                                                                              
  1.250000E+02  1.250000E+02 -4.975000E+03  8.097315E-09 -1.014000E-10 -1.012874E-10  8.096046E-09  4.629476E-11 -5.796230E-13 -5.789793E-13  4.628751E-11  0.000000E+00  0.000000E+00  0.000000E+00  0.000000E+00  0.000000E+00  0.000000E+00  0.000000E+00  0.000000E+00  8.232605E-03 -1.006992E-04 -1.005874E-04  8.231374E-03                                                                                                                                                                                                                                                                                                                                                                                                                                                                                              
  3.750000E+02  1.250000E+02 -4.975000E+03  7.837947E-09 -1.888222E-10 -1.059125E-10  7.834956E-09  4.481422E-11 -1.079345E-12 -6.054168E-13  4.479713E-11  0.000000E+00  0.000000E+00  0.000000E+00  0.000000E+00  0.000000E+00  0.000000E+00  0.000000E+00  0.000000E+00  7.971313E-03 -1.875167E-04 -1.051804E-04  7.968413E-03                                                                                                                                                                                                                                                                                                                                                                                                                                                                                              
  6.250000E+02  1.250000E+02 -4.975000E+03  7.505322E-09  3.709824E-11 -1.375898E-10  7.503969E-09  4.291669E-11  2.120603E-13 -7.864884E-13  4.290896E-11  0.000000E+00  0.000000E+00  0.000000E+00  0.000000E+00  0.000000E+00  0.000000E+00  0.000000E+00  0.000000E+00  7.637006E-03  3.684165E-05 -1.366376E-04  7.635694E-03                                                                                                                                                                                                                                                                                                                                                                                                                                                                                              
  7.600000E+02  1.250000E+02 -4.975000E+03  7.531632E-09  2.679398E-10 -1.280819E-10  7.525774E-09  4.306848E-11  1.531595E-12 -7.321402E-13  4.303501E-11  0.000000E+00  0.000000E+00  0.000000E+00  0.000000E+00  0.000000E+00  0.000000E+00  0.000000E+00  0.000000E+00  7.664381E-03  2.660867E-04 -1.271958E-04  7.658704E-03                                                                                                                                                                                                                                                                                                                                                                                                                                                                                              
  7.800000E+02  1.250000E+02 -4.975000E+03  7.535388E-09  3.063091E-10 -1.270764E-10  7.528087E-09  4.309026E-11  1.750922E-12 -7.263927E-13  4.304855E-11  0.000000E+00  0.000000E+00  0.000000E+00  0.000000E+00  0.000000E+00  0.000000E+00  0.000000E+00  0.000000E+00  7.668332E-03  3.041907E-04 -1.261974E-04  7.661256E-03                                                                                                                                                                                                                                                                                                                                                                                                                                                                                              
  8.000000E+02  1.250000E+02 -4.975000E+03  7.716546E-09  3.320559E-10 -1.266452E-10  7.708358E-09  4.412094E-11  1.898097E-12 -7.239283E-13  4.407415E-11  0.000000E+00  0.000000E+00  0.000000E+00  0.000000E+00  0.000000E+00  0.000000E+00  0.000000E+00  0.000000E+00  7.848617E-03  3.297601E-04 -1.257692E-04  7.840677E-03                                                                                                                                                                                                                                                                                                                                                                                                                                                                                              
  9.350000E+02  1.250000E+02 -4.975000E+03  7.839071E-09  3.812400E-10 -1.215677E-10  7.828851E-09  4.482107E-11  2.179247E-12 -6.949052E-13  4.476266E-11  0.000000E+00  0.000000E+00  0.000000E+00  0.000000E+00  0.000000E+00  0.000000E+00  0.000000E+00  0.000000E+00  7.972448E-03  3.786053E-04 -1.207273E-04  7.962538E-03                                                                                                                                                                                                                                                                                                                                                                                                                                                                                              
  1.185000E+03  1.250000E+02 -4.975000E+03  8.137478E-09  4.028888E-10 -1.523816E-10  8.126070E-09  4.652577E-11  2.303002E-12 -8.710459E-13  4.646057E-11  0.000000E+00  0.000000E+00  0.000000E+00  0.000000E+00  0.000000E+00  0.000000E+00  0.000000E+00  0.000000E+00  8.273734E-03  4.001069E-04 -1.513289E-04  8.262669E-03                                                                                                                                                                                                                                                                                                                                                                                                                                                                                              
  1.435000E+03  1.250000E+02 -4.975000E+03  8.527806E-09  1.908149E-10 -1.634587E-10  8.524104E-09  4.875379E-11  1.090743E-12 -9.343684E-13  4.873263E-11  0.000000E+00  0.000000E+00  0.000000E+00  0.000000E+00  0.000000E+00  0.000000E+00  0.000000E+00  0.000000E+00  8.666910E-03  1.894984E-04 -1.623310E-04  8.663317E-03                                                                                                                                                                                                                                                                                                                                                                                                                                                                                              
  1.250000E+02  1.250000E+02 -4.725000E+03  8.510935E-09 -7.225118E-11 -6.505115E-11  8.510379E-09  4.675143E-11 -4.073130E-13 -3.667258E-13  4.674821E-11  0.000000E+00  0.000000E+00  0.000000E+00  0.000000E+00  0.000000E+00  0.000000E+00  0.000000E+00  0.000000E+00  8.225840E-03 -6.795024E-05 -6.118233E-05  8.225332E-03                                                                                                                                                                                                                                                                                                                                                                                                                                                                                              
  3.750000E+02  1.250000E+02 -4.725000E+03  8.058535E-09 -1.271960E-10 -7.419026E-11  8.057189E-09  4.427597E-11 -7.170116E-13 -4.181900E-13  4.426819E-11  0.000000E+00  0.000000E+00  0.000000E+00  0.000000E+00  0.000000E+00  0.000000E+00  0.000000E+00  0.000000E+00  7.788285E-03 -1.195867E-04 -6.974131E-05  7.787054E-03                                                                                                                                                                                                                                                                                                                                                                                                                                                                                              
  6.250000E+02  1.250000E+02 -4.725000E+03  7.437623E-09  4.860713E-11 -9.354310E-11  7.436876E-09  4.088113E-11  2.739213E-13 -5.271465E-13  4.087682E-11  0.000000E+00  0.000000E+00  0.000000E+00  0.000000E+00  0.000000E+00  0.000000E+00  0.000000E+00  0.000000E+00  7.188707E-03  4.568044E-05 -8.782632E-05  7.188026E-03                                                                                                                                                                                                                                                                                                                                                                                                                                                                                              
  7.600000E+02  1.250000E+02 -4.725000E+03  7.375772E-09  2.241529E-10 -9.496391E-11  7.371753E-09  4.055189E-11  1.263329E-12 -5.351814E-13  4.052868E-11  0.000000E+00  0.000000E+00  0.000000E+00  0.000000E+00  0.000000E+00  0.000000E+00  0.000000E+00  0.000000E+00  7.130209E-03  2.106573E-04 -8.919715E-05  7.126538E-03                                                                                                                                                                                                                                                                                                                                                                                                                                                                                              
  7.800000E+02  1.250000E+02 -4.725000E+03  7.352986E-09  2.597653E-10 -9.573789E-11  7.347773E-09  4.043029E-11  1.464087E-12 -5.395484E-13  4.040017E-11  0.000000E+00  0.000000E+00  0.000000E+00  0.000000E+00  0.000000E+00  0.000000E+00  0.000000E+00  0.000000E+00  7.108596E-03  2.441260E-04 -8.993140E-05  7.103834E-03                                                                                                                                                                                                                                                                                                                                                                                                                                                                                              
  8.000000E+02  1.250000E+02 -4.725000E+03  7.945567E-09  2.772491E-10 -9.722633E-11  7.940134E-09  4.364530E-11  1.562740E-12 -5.479757E-13  4.361387E-11  0.000000E+00  0.000000E+00  0.000000E+00  0.000000E+00  0.000000E+00  0.000000E+00  0.000000E+00  0.000000E+00  7.676418E-03  2.606155E-04 -9.133837E-05  7.671449E-03                                                                                                                                                                                                                                                                                                                                                                                                                                                                                              
  9.350000E+02  1.250000E+02 -4.725000E+03  8.072192E-09  2.926785E-10 -1.018976E-10  8.066241E-09  4.434776E-11  1.649878E-12 -5.743609E-13  4.431334E-11  0.000000E+00  0.000000E+00  0.000000E+00  0.000000E+00  0.000000E+00  0.000000E+00  0.000000E+00  0.000000E+00  7.800362E-03  2.752153E-04 -9.578018E-05  7.794917E-03                                                                                                                                                                                                                                                                                                                                                                                                                                                                                              
  1.185000E+03  1.250000E+02 -4.725000E+03  8.516086E-09  2.970649E-10 -1.238456E-10  8.510002E-09  4.678334E-11  1.674849E-12 -6.981595E-13  4.674813E-11  0.000000E+00  0.000000E+00  0.000000E+00  0.000000E+00  0.000000E+00  0.000000E+00  0.000000E+00  0.000000E+00  8.230807E-03  2.794564E-04 -1.164468E-04  8.225237E-03                                                                                                                                                                                                                                                                                                                                                                                                                                                                                              