Title="TOUGHREACT V3.30-OMP flowvector.tec: Liq & Gas Fluxes (kg/s/m^2), Pore Velocities (m/s), & Heat Fluxes (J/s/m2)"                                                                                                                                                                                                                                                                                                                                                                                                                                                                                                                                                                                                                                                                                                         
Variables= "X(m)"     "Y(m)"      "Z(m)"     "FluxLiq"   "FluxLiq_X"   "FluxLiq_Y"   "FluxLiq_Z"   "PorVelLiq"  "PorVelLiqX"  "PorVelLiqY"  "PorVelLiqZ"     "FluxGas"   "FluxGas_X"   "FluxGas_Y"   "FluxGas_Z"   "PorVelGas"  "PorVelGasX"  "PorVelGasY"  "PorVelGasZ"    "HeatFlux"  "HeatFlux_X"  "HeatFlux_Y"  "HeatFlux_Z"                                                                                                                                                                                                                                                                                                                                                                                                                                                                                                
Zone T= "3.33000000E+10 sec" I=     9 J=    10 K=    23 F=Point
  1.250000E+02  1.250000E+02 -5.425000E+03  3.700697E-09 -1.932066E-12 -4.435139E-11  3.700431E-09  2.166534E-11 -1.142429E-14 -2.622494E-13  2.166375E-11  0.000000E+00  0.000000E+00  0.000000E+00  0.000000E+00  0.000000E+00  0.000000E+00  0.000000E+00  0.000000E+00  4.111605E-03 -2.146595E-06 -4.927597E-05  4.111309E-03                                                                                                                                                                                                                                                                                                                                                                                                                                                                                              
  3.750000E+02  1.250000E+02 -5.425000E+03  3.678980E-09  3.335933E-11 -4.712349E-11  3.678527E-09  2.153822E-11  1.972535E-13 -2.786409E-13  2.153552E-11  0.000000E+00  0.000000E+00  0.000000E+00  0.000000E+00  0.000000E+00  0.000000E+00  0.000000E+00  0.000000E+00  4.087478E-03  3.706341E-05 -5.235592E-05  4.086975E-03                                                                                                                                                                                                                                                                                                                                                                                                                                                                                              
  6.250000E+02  1.250000E+02 -5.425000E+03  3.663077E-09  1.461941E-10 -5.437108E-11  3.659754E-09  2.144547E-11  8.644452E-13 -3.214959E-13  2.142563E-11  0.000000E+00  0.000000E+00  0.000000E+00  0.000000E+00  0.000000E+00  0.000000E+00  0.000000E+00  0.000000E+00  4.069812E-03  1.624270E-04 -6.040830E-05  4.066121E-03                                                                                                                                                                                                                                                                                                                                                                                                                                                                                              
  7.600000E+02  1.250000E+02 -5.425000E+03  3.680918E-09  2.264490E-10 -5.982810E-11  3.673458E-09  2.155040E-11  1.338992E-12 -3.537633E-13  2.150586E-11  0.000000E+00  0.000000E+00  0.000000E+00  0.000000E+00  0.000000E+00  0.000000E+00  0.000000E+00  0.000000E+00  4.089633E-03  2.515931E-04 -6.647124E-05  4.081345E-03                                                                                                                                                                                                                                                                                                                                                                                                                                                                                              
  7.800000E+02  1.250000E+02 -5.425000E+03  3.683774E-09  2.354999E-10 -6.066064E-11  3.675738E-09  2.156720E-11  1.392510E-12 -3.586861E-13  2.151921E-11  0.000000E+00  0.000000E+00  0.000000E+00  0.000000E+00  0.000000E+00  0.000000E+00  0.000000E+00  0.000000E+00  4.092806E-03  2.616489E-04 -6.739621E-05  4.083878E-03                                                                                                                                                                                                                                                                                                                                                                                                                                                                                              
  8.000000E+02  1.250000E+02 -5.425000E+03  3.686859E-09  2.440556E-10 -6.151854E-11  3.678258E-09  2.158532E-11  1.443099E-12 -3.637589E-13  2.153395E-11  0.000000E+00  0.000000E+00  0.000000E+00  0.000000E+00  0.000000E+00  0.000000E+00  0.000000E+00  0.000000E+00  4.096233E-03  2.711545E-04 -6.834938E-05  4.086677E-03                                                                                                                                                                                                                                                                                                                                                                                                                                                                                              
  9.350000E+02  1.250000E+02 -5.425000E+03  3.707427E-09  2.752431E-10 -6.748430E-11  3.696580E-09  2.170600E-11  1.627512E-12 -3.990344E-13  2.164122E-11  0.000000E+00  0.000000E+00  0.000000E+00  0.000000E+00  0.000000E+00  0.000000E+00  0.000000E+00  0.000000E+00  4.119084E-03  3.058050E-04 -7.497752E-05  4.107033E-03                                                                                                                                                                                                                                                                                                                                                                                                                                                                                              
  1.185000E+03  1.250000E+02 -5.425000E+03  3.756191E-09  2.615677E-10 -8.264241E-11  3.746161E-09  2.199140E-11  1.546649E-12 -4.886643E-13  2.193150E-11  0.000000E+00  0.000000E+00  0.000000E+00  0.000000E+00  0.000000E+00  0.000000E+00  0.000000E+00  0.000000E+00  4.173260E-03  2.906110E-04 -9.181865E-05  4.162116E-03                                                                                                                                                                                                                                                                                                                                                                                                                                                                                              
  1.435000E+03  1.250000E+02 -5.425000E+03  3.796993E-09  1.104265E-10 -9.328367E-11  3.794240E-09  2.222943E-11  6.529515E-13 -5.515861E-13  2.221299E-11  0.000000E+00  0.000000E+00  0.000000E+00  0.000000E+00  0.000000E+00  0.000000E+00  0.000000E+00  0.000000E+00  4.218590E-03  1.226877E-04 -1.036414E-04  4.215532E-03                                                                                                                                                                                                                                                                                                                                                                                                                                                                                              
  1.250000E+02  1.250000E+02 -5.225000E+03  7.559975E-09 -1.899076E-11 -5.542102E-11  7.559748E-09  4.388316E-11 -1.100110E-13 -3.210468E-13  4.388185E-11  0.000000E+00  0.000000E+00  0.000000E+00  0.000000E+00  0.000000E+00  0.000000E+00  0.000000E+00  0.000000E+00  8.131495E-03 -1.978124E-05 -5.772789E-05  8.131266E-03                                                                                                                                                                                                                                                                                                                                                                                                                                                                                              
  3.750000E+02  1.250000E+02 -5.225000E+03  7.462419E-09  2.074898E-13 -5.904366E-11  7.462185E-09  4.331939E-11  1.201980E-15 -3.420322E-13  4.331804E-11  0.000000E+00  0.000000E+00  0.000000E+00  0.000000E+00  0.000000E+00  0.000000E+00  0.000000E+00  0.000000E+00  8.028361E-03  2.161265E-07 -6.150136E-05  8.028126E-03                                                                                                                                                                                                                                                                                                                                                                                                                                                                                              
  6.250000E+02  1.250000E+02 -5.225000E+03  7.368525E-09  1.458415E-10 -7.067447E-11  7.366742E-09  4.277705E-11  8.448413E-13 -4.094081E-13  4.276675E-11  0.000000E+00  0.000000E+00  0.000000E+00  0.000000E+00  0.000000E+00  0.000000E+00  0.000000E+00  0.000000E+00  7.929209E-03  1.519122E-04 -7.361640E-05  7.927412E-03                                                                                                                                                                                                                                                                                                                                                                                                                                                                                              
  7.600000E+02  1.250000E+02 -5.225000E+03  7.427356E-09  2.601311E-10 -7.711336E-11  7.422399E-09  4.311716E-11  1.506906E-12 -4.467079E-13  4.308850E-11  0.000000E+00  0.000000E+00  0.000000E+00  0.000000E+00  0.000000E+00  0.000000E+00  0.000000E+00  0.000000E+00  7.991335E-03  2.709591E-04 -8.032329E-05  7.986336E-03                                                                                                                                                                                                                                                                                                                                                                                                                                                                                              
  7.800000E+02  1.250000E+02 -5.225000E+03  7.437610E-09  2.734826E-10 -7.811560E-11  7.432170E-09  4.317643E-11  1.584250E-12 -4.525137E-13  4.314498E-11  0.000000E+00  0.000000E+00  0.000000E+00  0.000000E+00  0.000000E+00  0.000000E+00  0.000000E+00  0.000000E+00  8.002158E-03  2.848664E-04 -8.136724E-05  7.996672E-03                                                                                                                                                                                                                                                                                                                                                                                                                                                                                              
  8.000000E+02  1.250000E+02 -5.225000E+03  7.450895E-09  2.859581E-10 -7.917090E-11  7.444984E-09  4.325317E-11  1.656519E-12 -4.586270E-13  4.321901E-11  0.000000E+00  0.000000E+00  0.000000E+00  0.000000E+00  0.000000E+00  0.000000E+00  0.000000E+00  0.000000E+00  8.016155E-03  2.978611E-04 -8.246647E-05  8.010195E-03                                                                                                                                                                                                                                                                                                                                                                                                                                                                                              
  9.350000E+02  1.250000E+02 -5.225000E+03  7.533494E-09  3.297499E-10 -8.659959E-11  7.525776E-09  4.373054E-11  1.910200E-12 -5.016605E-13  4.368592E-11  0.000000E+00  0.000000E+00  0.000000E+00  0.000000E+00  0.000000E+00  0.000000E+00  0.000000E+00  0.000000E+00  8.103405E-03  3.434758E-04 -9.020436E-05  8.095620E-03                                                                                                                                                                                                                                                                                                                                                                                                                                                                                              
  1.185000E+03  1.250000E+02 -5.225000E+03  7.734526E-09  3.266927E-10 -1.098712E-10  7.726842E-09  4.489277E-11  1.892491E-12 -6.364703E-13  4.484834E-11  0.000000E+00  0.000000E+00  0.000000E+00  0.000000E+00  0.000000E+00  0.000000E+00  0.000000E+00  0.000000E+00  8.316252E-03  3.402915E-04 -1.144446E-04  8.308499E-03                                                                                                                                                                                                                                                                                                                                                                                                                                                                                              
  1.435000E+03  1.250000E+02 -5.225000E+03  7.942806E-09  1.429061E-10 -1.253811E-10  7.940530E-09  4.609646E-11  8.278382E-13 -7.263178E-13  4.608330E-11  0.000000E+00  0.000000E+00  0.000000E+00  0.000000E+00  0.000000E+00  0.000000E+00  0.000000E+00  0.000000E+00  8.536722E-03  1.488548E-04 -1.306002E-04  8.534425E-03                                                                                                                                                                                                                                                                                                                                                                                                                                                                                              
  1.250000E+02  1.250000E+02 -4.975000E+03  7.994803E-09 -9.043012E-11 -1.066417E-10  7.993580E-09  4.570303E-11 -5.168734E-13 -6.095340E-13  4.569604E-11  0.000000E+00  0.000000E+00  0.000000E+00  0.000000E+00  0.000000E+00  0.000000E+00  0.000000E+00  0.000000E+00  8.126510E-03 -8.979776E-05 -1.058960E-04  8.125324E-03                                                                                                                                                                                                                                                                                                                                                                                                                                                                                              
  3.750000E+02  1.250000E+02 -4.975000E+03  7.724842E-09 -1.450419E-10 -1.136215E-10  7.722645E-09  4.416244E-11 -8.290188E-13 -6.494283E-13  4.414989E-11  0.000000E+00  0.000000E+00  0.000000E+00  0.000000E+00  0.000000E+00  0.000000E+00  0.000000E+00  0.000000E+00  7.854724E-03 -1.440275E-04 -1.128270E-04  7.852593E-03                                                                                                                                                                                                                                                                                                                                                                                                                                                                                              
  6.250000E+02  1.250000E+02 -4.975000E+03  7.395364E-09  1.436546E-10 -1.542274E-10  7.392360E-09  4.228352E-11  8.210881E-13 -8.815192E-13  4.226636E-11  0.000000E+00  0.000000E+00  0.000000E+00  0.000000E+00  0.000000E+00  0.000000E+00  0.000000E+00  0.000000E+00  7.523794E-03  1.426496E-04 -1.531482E-04  7.520883E-03                                                                                                                                                                                                                                                                                                                                                                                                                                                                                              
  7.600000E+02  1.250000E+02 -4.975000E+03  7.469464E-09  4.188436E-10 -1.600364E-10  7.455994E-09  4.270798E-11  2.393990E-12 -9.147220E-13  4.263102E-11  0.000000E+00  0.000000E+00  0.000000E+00  0.000000E+00  0.000000E+00  0.000000E+00  0.000000E+00  0.000000E+00  7.599165E-03  4.159135E-04 -1.589168E-04  7.586111E-03                                                                                                                                                                                                                                                                                                                                                                                                                                                                                              
  7.800000E+02  1.250000E+02 -4.975000E+03  7.482565E-09  4.639405E-10 -1.614271E-10  7.466424E-09  4.278305E-11  2.651752E-12 -9.226711E-13  4.269082E-11  0.000000E+00  0.000000E+00  0.000000E+00  0.000000E+00  0.000000E+00  0.000000E+00  0.000000E+00  0.000000E+00  7.612476E-03  4.606948E-04 -1.602978E-04  7.596832E-03                                                                                                                                                                                                                                                                                                                                                                                                                                                                                              
  8.000000E+02  1.250000E+02 -4.975000E+03  7.673417E-09  4.961912E-10 -1.635102E-10  7.655611E-09  4.386890E-11  2.836090E-12 -9.345781E-13  4.376715E-11  0.000000E+00  0.000000E+00  0.000000E+00  0.000000E+00  0.000000E+00  0.000000E+00  0.000000E+00  0.000000E+00  7.802475E-03  4.927208E-04 -1.623664E-04  7.785209E-03                                                                                                                                                                                                                                                                                                                                                                                                                                                                                              
  9.350000E+02  1.250000E+02 -4.975000E+03  7.865594E-09  5.745094E-10 -1.761332E-10  7.842607E-09  4.496595E-11  3.283739E-12 -1.006728E-12  4.483459E-11  0.000000E+00  0.000000E+00  0.000000E+00  0.000000E+00  0.000000E+00  0.000000E+00  0.000000E+00  0.000000E+00  7.996234E-03  5.704925E-04 -1.749016E-04  7.973939E-03                                                                                                                                                                                                                                                                                                                                                                                                                                                                                              
  1.185000E+03  1.250000E+02 -4.975000E+03  8.337010E-09  6.150791E-10 -2.441931E-10  8.310703E-09  4.765704E-11  3.515634E-12 -1.395743E-12  4.750669E-11  0.000000E+00  0.000000E+00  0.000000E+00  0.000000E+00  0.000000E+00  0.000000E+00  0.000000E+00  0.000000E+00  8.471690E-03  6.107811E-04 -2.424862E-04  8.446164E-03                                                                                                                                                                                                                                                                                                                                                                                                                                                                                              
  1.435000E+03  1.250000E+02 -4.975000E+03  8.952326E-09  2.933978E-10 -2.802637E-10  8.943126E-09  5.116686E-11  1.676989E-12 -1.601918E-12  5.111428E-11  0.000000E+00  0.000000E+00  0.000000E+00  0.000000E+00  0.000000E+00  0.000000E+00  0.000000E+00  0.000000E+00  9.091218E-03  2.913487E-04 -2.783065E-04  9.082285E-03                                                                                                                                                                                                                                                                                                                                                                                                                                                                                              
  1.250000E+02  1.250000E+02 -4.725000E+03  8.495528E-09 -7.272466E-11 -7.437904E-11  8.494891E-09  4.665418E-11 -4.099473E-13 -4.192760E-13  4.665049E-11  0.000000E+00  0.000000E+00  0.000000E+00  0.000000E+00  0.000000E+00  0.000000E+00  0.000000E+00  0.000000E+00  8.208849E-03 -6.838892E-05 -6.994865E-05  8.208266E-03                                                                                                                                                                                                                                                                                                                                                                                                                                                                                              
  3.750000E+02  1.250000E+02 -4.725000E+03  8.000112E-09 -1.034394E-10 -8.437433E-11  7.998999E-09  4.394667E-11 -5.830579E-13 -4.755547E-13  4.394023E-11  0.000000E+00  0.000000E+00  0.000000E+00  0.000000E+00  0.000000E+00  0.000000E+00  0.000000E+00  0.000000E+00  7.730420E-03 -9.725170E-05 -7.930725E-05  7.729402E-03                                                                                                                                                                                                                                                                                                                                                                                                                                                                                              
  6.250000E+02  1.250000E+02 -4.725000E+03  7.311271E-09  1.937814E-10 -1.146005E-10  7.307804E-09  4.019078E-11  1.092047E-12 -6.457590E-13  4.017075E-11  0.000000E+00  0.000000E+00  0.000000E+00  0.000000E+00  0.000000E+00  0.000000E+00  0.000000E+00  0.000000E+00  7.066767E-03  1.820970E-04 -1.075878E-04  7.063601E-03                                                                                                                                                                                                                                                                                                                                                                                                                                                                                              
  7.600000E+02  1.250000E+02 -4.725000E+03  7.150522E-09  4.904227E-10 -1.583405E-10  7.131927E-09  3.935161E-11  2.763800E-12 -8.922743E-13  3.924429E-11  0.000000E+00  0.000000E+00  0.000000E+00  0.000000E+00  0.000000E+00  0.000000E+00  0.000000E+00  0.000000E+00  6.916483E-03  4.608538E-04 -1.487122E-04  6.899510E-03                                                                                                                                                                                                                                                                                                                                                                                                                                                                                              
  7.800000E+02  1.250000E+02 -4.725000E+03  7.114122E-09  5.779067E-10 -1.670240E-10  7.088643E-09  3.916239E-11  3.256924E-12 -9.412166E-13  3.901537E-11  0.000000E+00  0.000000E+00  0.000000E+00  0.000000E+00  0.000000E+00  0.000000E+00  0.000000E+00  0.000000E+00  6.882234E-03  5.430641E-04 -1.568803E-04  6.858981E-03                                                                                                                                                                                                                                                                                                                                                                                                                                                                                              
  8.000000E+02  1.250000E+02 -4.725000E+03  8.101748E-09  6.205842E-10 -1.782890E-10  8.075977E-09  4.448094E-11  3.497685E-12 -1.004768E-12  4.433182E-11  0.000000E+00  0.000000E+00  0.000000E+00  0.000000E+00  0.000000E+00  0.000000E+00  0.000000E+00  0.000000E+00  7.821676E-03  5.832976E-04 -1.674772E-04  7.798098E-03                                                                                                                                                                                                                                                                                                                                                                                                                                                                                              
  9.350000E+02  1.250000E+02 -4.725000E+03  8.311687E-09  6.876242E-10 -2.454150E-10  8.279558E-09  4.564788E-11  3.875937E-12 -1.383201E-12  4.546199E-11  0.000000E+00  0.000000E+00  0.000000E+00  0.000000E+00  0.000000E+00  0.000000E+00  0.000000E+00  0.000000E+00  8.026410E-03  6.465373E-04 -2.306601E-04  7.997002E-03                                                                                                                                                                                                                                                                                                                                                                                                                                                                                              
  1.185000E+03  1.250000E+02 -4.725000E+03  9.131052E-09  7.949474E-10 -3.875633E-10  9.088122E-09  5.013232E-11  4.481561E-12 -2.184641E-12  4.988379E-11  0.000000E+00  0.000000E+00  0.000000E+00  0.000000E+00  0.000000E+00  0.000000E+00  0.000000E+00  0.000000E+00  8.816208E-03  7.477732E-04 -3.643751E-04  8.776878E-03                                                                                                                                                                                                                                                                                                                                                                                                                                                                                              