Title="TOUGHREACT V3.30-OMP flowvector.tec: Liq & Gas Fluxes (kg/s/m^2), Pore Velocities (m/s), & Heat Fluxes (J/s/m2)"                                                                                                                                                                                                                                                                                                                                                                                                                                                                                                                                                                                                                                                                                                         
Variables= "X(m)"     "Y(m)"      "Z(m)"     "FluxLiq"   "FluxLiq_X"   "FluxLiq_Y"   "FluxLiq_Z"   "PorVelLiq"  "PorVelLiqX"  "PorVelLiqY"  "PorVelLiqZ"     "FluxGas"   "FluxGas_X"   "FluxGas_Y"   "FluxGas_Z"   "PorVelGas"  "PorVelGasX"  "PorVelGasY"  "PorVelGasZ"    "HeatFlux"  "HeatFlux_X"  "HeatFlux_Y"  "HeatFlux_Z"                                                                                                                                                                                                                                                                                                                                                                                                                                                                                                
Zone T= "4.00000000E+10 sec" I=     9 J=    10 K=    23 F=Point
  1.250000E+02  1.250000E+02 -5.425000E+03  3.713249E-09 -8.246519E-12 -4.213370E-11  3.713001E-09  2.175962E-11 -4.885650E-14 -2.496211E-13  2.175813E-11  0.000000E+00  0.000000E+00  0.000000E+00  0.000000E+00  0.000000E+00  0.000000E+00  0.000000E+00  0.000000E+00  4.148382E-03 -9.212883E-06 -4.707111E-05  4.148104E-03                                                                                                                                                                                                                                                                                                                                                                                                                                                                                              
  3.750000E+02  1.250000E+02 -5.425000E+03  3.691453E-09  1.351845E-11 -4.407985E-11  3.691165E-09  2.163190E-11  8.009009E-14 -2.611511E-13  2.163018E-11  0.000000E+00  0.000000E+00  0.000000E+00  0.000000E+00  0.000000E+00  0.000000E+00  0.000000E+00  0.000000E+00  4.124034E-03  1.510260E-05 -4.924536E-05  4.123713E-03                                                                                                                                                                                                                                                                                                                                                                                                                                                                                              
  6.250000E+02  1.250000E+02 -5.425000E+03  3.673305E-09  1.118882E-10 -4.933807E-11  3.671269E-09  2.152579E-11  6.628818E-13 -2.923035E-13  2.151359E-11  0.000000E+00  0.000000E+00  0.000000E+00  0.000000E+00  0.000000E+00  0.000000E+00  0.000000E+00  0.000000E+00  4.103762E-03  1.249998E-04 -5.511980E-05  4.101488E-03                                                                                                                                                                                                                                                                                                                                                                                                                                                                                              
  7.600000E+02  1.250000E+02 -5.425000E+03  3.687686E-09  1.844697E-10 -5.287228E-11  3.682690E-09  2.161044E-11  1.092891E-12 -3.132420E-13  2.158052E-11  0.000000E+00  0.000000E+00  0.000000E+00  0.000000E+00  0.000000E+00  0.000000E+00  0.000000E+00  0.000000E+00  4.119827E-03  2.060868E-04 -5.906816E-05  4.114245E-03                                                                                                                                                                                                                                                                                                                                                                                                                                                                                              
  7.800000E+02  1.250000E+02 -5.425000E+03  3.690028E-09  1.926946E-10 -5.341453E-11  3.684606E-09  2.162422E-11  1.141620E-12 -3.164546E-13  2.159175E-11  0.000000E+00  0.000000E+00  0.000000E+00  0.000000E+00  0.000000E+00  0.000000E+00  0.000000E+00  0.000000E+00  4.122444E-03  2.152755E-04 -5.967395E-05  4.116386E-03                                                                                                                                                                                                                                                                                                                                                                                                                                                                                              
  8.000000E+02  1.250000E+02 -5.425000E+03  3.692583E-09  2.004682E-10 -5.397502E-11  3.686742E-09  2.163925E-11  1.187675E-12 -3.197752E-13  2.160427E-11  0.000000E+00  0.000000E+00  0.000000E+00  0.000000E+00  0.000000E+00  0.000000E+00  0.000000E+00  0.000000E+00  4.125298E-03  2.239601E-04 -6.030012E-05  4.118773E-03                                                                                                                                                                                                                                                                                                                                                                                                                                                                                              
  9.350000E+02  1.250000E+02 -5.425000E+03  3.709893E-09  2.290959E-10 -5.789739E-11  3.702360E-09  2.174091E-11  1.357279E-12 -3.430133E-13  2.169579E-11  0.000000E+00  0.000000E+00  0.000000E+00  0.000000E+00  0.000000E+00  0.000000E+00  0.000000E+00  0.000000E+00  4.144635E-03  2.559424E-04 -6.468212E-05  4.136219E-03                                                                                                                                                                                                                                                                                                                                                                                                                                                                                              
  1.185000E+03  1.250000E+02 -5.425000E+03  3.751260E-09  2.200842E-10 -6.892196E-11  3.744164E-09  2.198328E-11  1.303890E-12 -4.083284E-13  2.194077E-11  0.000000E+00  0.000000E+00  0.000000E+00  0.000000E+00  0.000000E+00  0.000000E+00  0.000000E+00  0.000000E+00  4.190847E-03  2.458746E-04 -7.699853E-05  4.182920E-03                                                                                                                                                                                                                                                                                                                                                                                                                                                                                              
  1.435000E+03  1.250000E+02 -5.425000E+03  3.786305E-09  9.310843E-11 -7.681731E-11  3.784380E-09  2.218798E-11  5.516213E-13 -4.551045E-13  2.217645E-11  0.000000E+00  0.000000E+00  0.000000E+00  0.000000E+00  0.000000E+00  0.000000E+00  0.000000E+00  0.000000E+00  4.229996E-03  1.040192E-04 -8.581904E-05  4.227846E-03                                                                                                                                                                                                                                                                                                                                                                                                                                                                                              
  1.250000E+02  1.250000E+02 -5.225000E+03  7.574690E-09 -2.490213E-11 -5.293887E-11  7.574464E-09  4.399039E-11 -1.442583E-13 -3.066753E-13  4.398909E-11  0.000000E+00  0.000000E+00  0.000000E+00  0.000000E+00  0.000000E+00  0.000000E+00  0.000000E+00  0.000000E+00  8.170609E-03 -2.593920E-05 -5.514355E-05  8.170381E-03                                                                                                                                                                                                                                                                                                                                                                                                                                                                                              
  3.750000E+02  1.250000E+02 -5.225000E+03  7.478448E-09 -1.958720E-11 -5.566370E-11  7.478215E-09  4.343406E-11 -1.134688E-13 -3.224603E-13  4.343271E-11  0.000000E+00  0.000000E+00  0.000000E+00  0.000000E+00  0.000000E+00  0.000000E+00  0.000000E+00  0.000000E+00  8.068711E-03 -2.040292E-05 -5.798191E-05  8.068477E-03                                                                                                                                                                                                                                                                                                                                                                                                                                                                                              
  6.250000E+02  1.250000E+02 -5.225000E+03  7.380998E-09  1.082850E-10 -6.481099E-11  7.379919E-09  4.287099E-11  6.272959E-13 -3.754507E-13  4.286476E-11  0.000000E+00  0.000000E+00  0.000000E+00  0.000000E+00  0.000000E+00  0.000000E+00  0.000000E+00  0.000000E+00  7.965675E-03  1.127947E-04 -6.751021E-05  7.964590E-03                                                                                                                                                                                                                                                                                                                                                                                                                                                                                              
  7.600000E+02  1.250000E+02 -5.225000E+03  7.429800E-09  2.121476E-10 -6.845266E-11  7.426455E-09  4.315318E-11  1.228973E-12 -3.965470E-13  4.313385E-11  0.000000E+00  0.000000E+00  0.000000E+00  0.000000E+00  0.000000E+00  0.000000E+00  0.000000E+00  0.000000E+00  8.017289E-03  2.209829E-04 -7.130354E-05  8.013926E-03                                                                                                                                                                                                                                                                                                                                                                                                                                                                                              
  7.800000E+02  1.250000E+02 -5.225000E+03  7.438464E-09  2.242508E-10 -6.902727E-11  7.434762E-09  4.320326E-11  1.299087E-12 -3.998757E-13  4.318188E-11  0.000000E+00  0.000000E+00  0.000000E+00  0.000000E+00  0.000000E+00  0.000000E+00  0.000000E+00  0.000000E+00  8.026446E-03  2.335901E-04 -7.190207E-05  8.022724E-03                                                                                                                                                                                                                                                                                                                                                                                                                                                                                              
  8.000000E+02  1.250000E+02 -5.225000E+03  7.450058E-09  2.355335E-10 -6.964247E-11  7.446008E-09  4.327025E-11  1.364448E-12 -4.034396E-13  4.324685E-11  0.000000E+00  0.000000E+00  0.000000E+00  0.000000E+00  0.000000E+00  0.000000E+00  0.000000E+00  0.000000E+00  8.038672E-03  2.453426E-04 -7.254289E-05  8.034599E-03                                                                                                                                                                                                                                                                                                                                                                                                                                                                                              
  9.350000E+02  1.250000E+02 -5.225000E+03  7.520891E-09  2.743771E-10 -7.402221E-11  7.515520E-09  4.367970E-11  1.589470E-12 -4.288115E-13  4.364866E-11  0.000000E+00  0.000000E+00  0.000000E+00  0.000000E+00  0.000000E+00  0.000000E+00  0.000000E+00  0.000000E+00  8.113588E-03  2.858040E-04 -7.710502E-05  8.108186E-03                                                                                                                                                                                                                                                                                                                                                                                                                                                                                              
  1.185000E+03  1.250000E+02 -5.225000E+03  7.689221E-09  2.736044E-10 -9.096161E-11  7.683813E-09  4.465315E-11  1.584995E-12 -5.269420E-13  4.462190E-11  0.000000E+00  0.000000E+00  0.000000E+00  0.000000E+00  0.000000E+00  0.000000E+00  0.000000E+00  0.000000E+00  8.292089E-03  2.849994E-04 -9.474992E-05  8.286648E-03                                                                                                                                                                                                                                                                                                                                                                                                                                                                                              
  1.435000E+03  1.250000E+02 -5.225000E+03  7.862687E-09  1.196876E-10 -1.022660E-10  7.861111E-09  4.565595E-11  6.933528E-13 -5.924288E-13  4.564684E-11  0.000000E+00  0.000000E+00  0.000000E+00  0.000000E+00  0.000000E+00  0.000000E+00  0.000000E+00  0.000000E+00  8.475961E-03  1.246724E-04 -1.065252E-04  8.474375E-03                                                                                                                                                                                                                                                                                                                                                                                                                                                                                              
  1.250000E+02  1.250000E+02 -4.975000E+03  7.984243E-09 -9.477885E-11 -1.032168E-10  7.983013E-09  4.564423E-11 -5.417410E-13 -5.899710E-13  4.563721E-11  0.000000E+00  0.000000E+00  0.000000E+00  0.000000E+00  0.000000E+00  0.000000E+00  0.000000E+00  0.000000E+00  8.116269E-03 -9.411737E-05 -1.024965E-04  8.115076E-03                                                                                                                                                                                                                                                                                                                                                                                                                                                                                              
  3.750000E+02  1.250000E+02 -4.975000E+03  7.722399E-09 -1.643714E-10 -1.092080E-10  7.719877E-09  4.414981E-11 -9.395206E-13 -6.242150E-13  4.413540E-11  0.000000E+00  0.000000E+00  0.000000E+00  0.000000E+00  0.000000E+00  0.000000E+00  0.000000E+00  0.000000E+00  7.852589E-03 -1.632240E-04 -1.084458E-04  7.850144E-03                                                                                                                                                                                                                                                                                                                                                                                                                                                                                              
  6.250000E+02  1.250000E+02 -4.975000E+03  7.393984E-09  9.320569E-11 -1.457190E-10  7.391961E-09  4.227670E-11  5.327480E-13 -8.329047E-13  4.226514E-11  0.000000E+00  0.000000E+00  0.000000E+00  0.000000E+00  0.000000E+00  0.000000E+00  0.000000E+00  0.000000E+00  7.522656E-03  9.255489E-05 -1.447012E-04  7.520695E-03                                                                                                                                                                                                                                                                                                                                                                                                                                                                                              
  7.600000E+02  1.250000E+02 -4.975000E+03  7.445294E-09  3.461885E-10 -1.443667E-10  7.435839E-09  4.257111E-11  1.978756E-12 -8.251759E-13  4.251709E-11  0.000000E+00  0.000000E+00  0.000000E+00  0.000000E+00  0.000000E+00  0.000000E+00  0.000000E+00  0.000000E+00  7.575138E-03  3.437713E-04 -1.433586E-04  7.565976E-03                                                                                                                                                                                                                                                                                                                                                                                                                                                                                              
  7.800000E+02  1.250000E+02 -4.975000E+03  7.453928E-09  3.878902E-10 -1.446353E-10  7.442424E-09  4.262071E-11  2.217117E-12 -8.267113E-13  4.255497E-11  0.000000E+00  0.000000E+00  0.000000E+00  0.000000E+00  0.000000E+00  0.000000E+00  0.000000E+00  0.000000E+00  7.583974E-03  3.851818E-04 -1.436254E-04  7.572825E-03                                                                                                                                                                                                                                                                                                                                                                                                                                                                                              
  8.000000E+02  1.250000E+02 -4.975000E+03  7.639729E-09  4.168777E-10 -1.455388E-10  7.626958E-09  4.367778E-11  2.382806E-12 -8.318762E-13  4.360480E-11  0.000000E+00  0.000000E+00  0.000000E+00  0.000000E+00  0.000000E+00  0.000000E+00  0.000000E+00  0.000000E+00  7.768910E-03  4.139677E-04 -1.445227E-04  7.756526E-03                                                                                                                                                                                                                                                                                                                                                                                                                                                                                              
  9.350000E+02  1.250000E+02 -4.975000E+03  7.798173E-09  4.804477E-10 -1.498580E-10  7.781915E-09  4.458257E-11  2.746166E-12 -8.565643E-13  4.448966E-11  0.000000E+00  0.000000E+00  0.000000E+00  0.000000E+00  0.000000E+00  0.000000E+00  0.000000E+00  0.000000E+00  7.928796E-03  4.770951E-04 -1.488121E-04  7.913030E-03                                                                                                                                                                                                                                                                                                                                                                                                                                                                                              
  1.185000E+03  1.250000E+02 -4.975000E+03  8.184941E-09  5.108925E-10 -2.004067E-10  8.166522E-09  4.679097E-11  2.920191E-12 -1.145496E-12  4.668571E-11  0.000000E+00  0.000000E+00  0.000000E+00  0.000000E+00  0.000000E+00  0.000000E+00  0.000000E+00  0.000000E+00  8.319012E-03  5.073297E-04 -1.990086E-04  8.301143E-03                                                                                                                                                                                                                                                                                                                                                                                                                                                                                              
  1.435000E+03  1.250000E+02 -4.975000E+03  8.689580E-09  2.428226E-10 -2.252048E-10  8.683266E-09  4.967016E-11  1.387943E-12 -1.287242E-12  4.963408E-11  0.000000E+00  0.000000E+00  0.000000E+00  0.000000E+00  0.000000E+00  0.000000E+00  0.000000E+00  0.000000E+00  8.827145E-03  2.411302E-04 -2.236353E-04  8.821016E-03                                                                                                                                                                                                                                                                                                                                                                                                                                                                                              
  1.250000E+02  1.250000E+02 -4.725000E+03  8.445309E-09 -7.021127E-11 -6.784616E-11  8.444744E-09  4.638329E-11 -3.957878E-13 -3.824582E-13  4.638003E-11  0.000000E+00  0.000000E+00  0.000000E+00  0.000000E+00  0.000000E+00  0.000000E+00  0.000000E+00  0.000000E+00  8.161065E-03 -6.602646E-05 -6.380596E-05  8.160548E-03                                                                                                                                                                                                                                                                                                                                                                                                                                                                                              
  3.750000E+02  1.250000E+02 -4.725000E+03  7.978107E-09 -1.109386E-10 -7.782677E-11  7.976956E-09  4.382826E-11 -6.253349E-13 -4.386602E-13  4.382160E-11  0.000000E+00  0.000000E+00  0.000000E+00  0.000000E+00  0.000000E+00  0.000000E+00  0.000000E+00  0.000000E+00  7.709518E-03 -1.042987E-04 -7.315406E-05  7.708465E-03                                                                                                                                                                                                                                                                                                                                                                                                                                                                                              
  6.250000E+02  1.250000E+02 -4.725000E+03  7.326266E-09  1.263633E-10 -1.036251E-10  7.324443E-09  4.026968E-11  7.121195E-13 -5.839261E-13  4.025914E-11  0.000000E+00  0.000000E+00  0.000000E+00  0.000000E+00  0.000000E+00  0.000000E+00  0.000000E+00  0.000000E+00  7.080893E-03  1.187459E-04 -9.728540E-05  7.079229E-03                                                                                                                                                                                                                                                                                                                                                                                                                                                                                              
  7.600000E+02  1.250000E+02 -4.725000E+03  7.211763E-09  3.639460E-10 -1.275274E-10  7.201444E-09  3.966848E-11  2.051077E-12 -7.186528E-13  3.960890E-11  0.000000E+00  0.000000E+00  0.000000E+00  0.000000E+00  0.000000E+00  0.000000E+00  0.000000E+00  0.000000E+00  6.973561E-03  3.420080E-04 -1.197746E-04  6.964140E-03                                                                                                                                                                                                                                                                                                                                                                                                                                                                                              
  7.800000E+02  1.250000E+02 -4.725000E+03  7.181441E-09  4.266139E-10 -1.324982E-10  7.167533E-09  3.950907E-11  2.404329E-12 -7.466716E-13  3.942877E-11  0.000000E+00  0.000000E+00  0.000000E+00  0.000000E+00  0.000000E+00  0.000000E+00  0.000000E+00  0.000000E+00  6.944968E-03  4.008991E-04 -1.244531E-04  6.932270E-03                                                                                                                                                                                                                                                                                                                                                                                                                                                                                              
  8.000000E+02  1.250000E+02 -4.725000E+03  7.983460E-09  4.569299E-10 -1.391690E-10  7.969158E-09  4.383906E-11  2.575365E-12 -7.843190E-13  4.375632E-11  0.000000E+00  0.000000E+00  0.000000E+00  0.000000E+00  0.000000E+00  0.000000E+00  0.000000E+00  0.000000E+00  7.709750E-03  4.294829E-04 -1.307314E-04  7.696668E-03                                                                                                                                                                                                                                                                                                                                                                                                                                                                                              
  9.350000E+02  1.250000E+02 -4.725000E+03  8.150766E-09  4.975079E-10 -1.768933E-10  8.133645E-09  4.476864E-11  2.804364E-12 -9.970223E-13  4.466959E-11  0.000000E+00  0.000000E+00  0.000000E+00  0.000000E+00  0.000000E+00  0.000000E+00  0.000000E+00  0.000000E+00  7.873230E-03  4.677877E-04 -1.662607E-04  7.857562E-03                                                                                                                                                                                                                                                                                                                                                                                                                                                                                              
  1.185000E+03  1.250000E+02 -4.725000E+03  8.788232E-09  5.526823E-10 -2.626520E-10  8.766903E-09  4.825954E-11  3.115836E-12 -1.480564E-12  4.813608E-11  0.000000E+00  0.000000E+00  0.000000E+00  0.000000E+00  0.000000E+00  0.000000E+00  0.000000E+00  0.000000E+00  8.488930E-03  5.198897E-04 -2.469414E-04  8.469396E-03                                                                                                                                                                                                                                                                                                                                                                                                                                                                                              