Title="TOUGHREACT V3.30-OMP flowvector.tec: Liq & Gas Fluxes (kg/s/m^2), Pore Velocities (m/s), & Heat Fluxes (J/s/m2)"                                                                                                                                                                                                                                                                                                                                                                                                                                                                                                                                                                                                                                                                                                         
Variables= "X(m)"     "Y(m)"      "Z(m)"     "FluxLiq"   "FluxLiq_X"   "FluxLiq_Y"   "FluxLiq_Z"   "PorVelLiq"  "PorVelLiqX"  "PorVelLiqY"  "PorVelLiqZ"     "FluxGas"   "FluxGas_X"   "FluxGas_Y"   "FluxGas_Z"   "PorVelGas"  "PorVelGasX"  "PorVelGasY"  "PorVelGasZ"    "HeatFlux"  "HeatFlux_X"  "HeatFlux_Y"  "HeatFlux_Z"                                                                                                                                                                                                                                                                                                                                                                                                                                                                                                
Zone T= "5.67000000E+10 sec" I=     9 J=    10 K=    23 F=Point
  1.250000E+02  1.250000E+02 -5.425000E+03  3.754450E-09 -1.453131E-11 -4.081476E-11  3.754200E-09  2.205385E-11 -8.651313E-14 -2.429934E-13  2.205234E-11  0.000000E+00  0.000000E+00  0.000000E+00  0.000000E+00  0.000000E+00  0.000000E+00  0.000000E+00  0.000000E+00  4.252121E-03 -1.645752E-05 -4.622498E-05  4.251838E-03                                                                                                                                                                                                                                                                                                                                                                                                                                                                                              
  3.750000E+02  1.250000E+02 -5.425000E+03  3.732208E-09 -5.489184E-12 -4.193960E-11  3.731968E-09  2.192320E-11 -3.268021E-14 -2.496902E-13  2.192175E-11  0.000000E+00  0.000000E+00  0.000000E+00  0.000000E+00  0.000000E+00  0.000000E+00  0.000000E+00  0.000000E+00  4.226933E-03 -6.216806E-06 -4.749896E-05  4.226662E-03                                                                                                                                                                                                                                                                                                                                                                                                                                                                                              
  6.250000E+02  1.250000E+02 -5.425000E+03  3.711754E-09  8.062969E-11 -4.526187E-11  3.710602E-09  2.180320E-11  4.800344E-13 -2.694697E-13  2.179625E-11  0.000000E+00  0.000000E+00  0.000000E+00  0.000000E+00  0.000000E+00  0.000000E+00  0.000000E+00  0.000000E+00  4.203770E-03  9.131766E-05 -5.126166E-05  4.202465E-03                                                                                                                                                                                                                                                                                                                                                                                                                                                                                              
  7.600000E+02  1.250000E+02 -5.425000E+03  3.723155E-09  1.470660E-10 -4.696748E-11  3.719953E-09  2.187050E-11  8.755675E-13 -2.796241E-13  2.185118E-11  0.000000E+00  0.000000E+00  0.000000E+00  0.000000E+00  0.000000E+00  0.000000E+00  0.000000E+00  0.000000E+00  4.216682E-03  1.665605E-04 -5.319334E-05  4.213055E-03                                                                                                                                                                                                                                                                                                                                                                                                                                                                                              
  7.800000E+02  1.250000E+02 -5.425000E+03  3.725063E-09  1.546609E-10 -4.723155E-11  3.721552E-09  2.188176E-11  9.207846E-13 -2.811963E-13  2.186057E-11  0.000000E+00  0.000000E+00  0.000000E+00  0.000000E+00  0.000000E+00  0.000000E+00  0.000000E+00  0.000000E+00  4.218843E-03  1.751622E-04 -5.349242E-05  4.214866E-03                                                                                                                                                                                                                                                                                                                                                                                                                                                                                              
  8.000000E+02  1.250000E+02 -5.425000E+03  3.727164E-09  1.618542E-10 -4.750893E-11  3.723345E-09  2.189415E-11  9.636099E-13 -2.828477E-13  2.187110E-11  0.000000E+00  0.000000E+00  0.000000E+00  0.000000E+00  0.000000E+00  0.000000E+00  0.000000E+00  0.000000E+00  4.221222E-03  1.833089E-04 -5.380657E-05  4.216896E-03                                                                                                                                                                                                                                                                                                                                                                                                                                                                                              
  9.350000E+02  1.250000E+02 -5.425000E+03  3.741663E-09  1.887870E-10 -4.948430E-11  3.736570E-09  2.197953E-11  1.123956E-12 -2.946082E-13  2.194879E-11  0.000000E+00  0.000000E+00  0.000000E+00  0.000000E+00  0.000000E+00  0.000000E+00  0.000000E+00  0.000000E+00  4.237642E-03  2.138118E-04 -5.604376E-05  4.231873E-03                                                                                                                                                                                                                                                                                                                                                                                                                                                                                              
  1.185000E+03  1.250000E+02 -5.425000E+03  3.776524E-09  1.844544E-10 -5.663446E-11  3.771592E-09  2.218429E-11  1.098162E-12 -3.371772E-13  2.215452E-11  0.000000E+00  0.000000E+00  0.000000E+00  0.000000E+00  0.000000E+00  0.000000E+00  0.000000E+00  0.000000E+00  4.277121E-03  2.089048E-04 -6.414167E-05  4.271534E-03                                                                                                                                                                                                                                                                                                                                                                                                                                                                                              
  1.435000E+03  1.250000E+02 -5.425000E+03  3.806411E-09  7.833902E-11 -6.196354E-11  3.805100E-09  2.235928E-11  4.663968E-13 -3.689042E-13  2.235137E-11  0.000000E+00  0.000000E+00  0.000000E+00  0.000000E+00  0.000000E+00  0.000000E+00  0.000000E+00  0.000000E+00  4.310968E-03  8.872324E-05 -7.017710E-05  4.309483E-03                                                                                                                                                                                                                                                                                                                                                                                                                                                                                              
  1.250000E+02  1.250000E+02 -5.225000E+03  7.647705E-09 -3.086292E-11 -5.126390E-11  7.647471E-09  4.446874E-11 -1.787977E-13 -2.969865E-13  4.446739E-11  0.000000E+00  0.000000E+00  0.000000E+00  0.000000E+00  0.000000E+00  0.000000E+00  0.000000E+00  0.000000E+00  8.307736E-03 -3.215025E-05 -5.340218E-05  8.307502E-03                                                                                                                                                                                                                                                                                                                                                                                                                                                                                              
  3.750000E+02  1.250000E+02 -5.225000E+03  7.551042E-09 -3.870000E-11 -5.307445E-11  7.550756E-09  4.390961E-11 -2.242002E-13 -3.074755E-13  4.390796E-11  0.000000E+00  0.000000E+00  0.000000E+00  0.000000E+00  0.000000E+00  0.000000E+00  0.000000E+00  0.000000E+00  8.205020E-03 -4.031422E-05 -5.528827E-05  8.204735E-03                                                                                                                                                                                                                                                                                                                                                                                                                                                                                              
  6.250000E+02  1.250000E+02 -5.225000E+03  7.448867E-09  7.365143E-11 -5.980842E-11  7.448263E-09  4.331885E-11  4.266839E-13 -3.464873E-13  4.331536E-11  0.000000E+00  0.000000E+00  0.000000E+00  0.000000E+00  0.000000E+00  0.000000E+00  0.000000E+00  0.000000E+00  8.096633E-03  7.672353E-05 -6.230316E-05  8.096030E-03                                                                                                                                                                                                                                                                                                                                                                                                                                                                                              
  7.600000E+02  1.250000E+02 -5.225000E+03  7.488528E-09  1.686523E-10 -6.078472E-11  7.486382E-09  4.354831E-11  9.770515E-13 -3.521434E-13  4.353593E-11  0.000000E+00  0.000000E+00  0.000000E+00  0.000000E+00  0.000000E+00  0.000000E+00  0.000000E+00  0.000000E+00  8.138731E-03  1.756871E-04 -6.332018E-05  8.136588E-03                                                                                                                                                                                                                                                                                                                                                                                                                                                                                              
  7.800000E+02  1.250000E+02 -5.225000E+03  7.495761E-09  1.797148E-10 -6.095218E-11  7.493359E-09  4.359015E-11  1.041140E-12 -3.531135E-13  4.357628E-11  0.000000E+00  0.000000E+00  0.000000E+00  0.000000E+00  0.000000E+00  0.000000E+00  0.000000E+00  0.000000E+00  8.146400E-03  1.872110E-04 -6.349463E-05  8.144002E-03                                                                                                                                                                                                                                                                                                                                                                                                                                                                                              
  8.000000E+02  1.250000E+02 -5.225000E+03  7.505839E-09  1.900066E-10 -6.114876E-11  7.503184E-09  4.364839E-11  1.100763E-12 -3.542524E-13  4.363307E-11  0.000000E+00  0.000000E+00  0.000000E+00  0.000000E+00  0.000000E+00  0.000000E+00  0.000000E+00  0.000000E+00  8.157050E-03  1.979321E-04 -6.369941E-05  8.154400E-03                                                                                                                                                                                                                                                                                                                                                                                                                                                                                              
  9.350000E+02  1.250000E+02 -5.225000E+03  7.566109E-09  2.249175E-10 -6.263068E-11  7.562505E-09  4.399696E-11  1.303013E-12 -3.628377E-13  4.397617E-11  0.000000E+00  0.000000E+00  0.000000E+00  0.000000E+00  0.000000E+00  0.000000E+00  0.000000E+00  0.000000E+00  8.220996E-03  2.342993E-04 -6.524314E-05  8.217398E-03                                                                                                                                                                                                                                                                                                                                                                                                                                                                                              
  1.185000E+03  1.250000E+02 -5.225000E+03  7.705532E-09  2.268186E-10 -7.357978E-11  7.701841E-09  4.480382E-11  1.314027E-12 -4.262693E-13  4.478252E-11  0.000000E+00  0.000000E+00  0.000000E+00  0.000000E+00  0.000000E+00  0.000000E+00  0.000000E+00  0.000000E+00  8.369419E-03  2.362799E-04 -7.664901E-05  8.365732E-03                                                                                                                                                                                                                                                                                                                                                                                                                                                                                              
  1.435000E+03  1.250000E+02 -5.225000E+03  7.848611E-09  9.935677E-11 -8.079745E-11  7.847566E-09  4.563154E-11  5.756035E-13 -4.680838E-13  4.562551E-11  0.000000E+00  0.000000E+00  0.000000E+00  0.000000E+00  0.000000E+00  0.000000E+00  0.000000E+00  0.000000E+00  8.521635E-03  1.035014E-04 -8.416787E-05  8.520590E-03                                                                                                                                                                                                                                                                                                                                                                                                                                                                                              
  1.250000E+02  1.250000E+02 -4.975000E+03  8.032647E-09 -1.001291E-10 -1.013440E-10  8.031383E-09  4.592351E-11 -5.723446E-13 -5.792888E-13  4.591629E-11  0.000000E+00  0.000000E+00  0.000000E+00  0.000000E+00  0.000000E+00  0.000000E+00  0.000000E+00  0.000000E+00  8.166292E-03 -9.943397E-05 -1.006405E-04  8.165066E-03                                                                                                                                                                                                                                                                                                                                                                                                                                                                                              
  3.750000E+02  1.250000E+02 -4.975000E+03  7.774101E-09 -1.846221E-10 -1.061852E-10  7.771183E-09  4.444775E-11 -1.055311E-12 -6.069610E-13  4.443107E-11  0.000000E+00  0.000000E+00  0.000000E+00  0.000000E+00  0.000000E+00  0.000000E+00  0.000000E+00  0.000000E+00  7.905860E-03 -1.833400E-04 -1.054479E-04  7.903030E-03                                                                                                                                                                                                                                                                                                                                                                                                                                                                                              
  6.250000E+02  1.250000E+02 -4.975000E+03  7.443424E-09  4.562682E-11 -1.385785E-10  7.441994E-09  4.256143E-11  2.608051E-13 -7.921216E-13  4.255326E-11  0.000000E+00  0.000000E+00  0.000000E+00  0.000000E+00  0.000000E+00  0.000000E+00  0.000000E+00  0.000000E+00  7.573551E-03  4.530987E-05 -1.376154E-04  7.572165E-03                                                                                                                                                                                                                                                                                                                                                                                                                                                                                              
  7.600000E+02  1.250000E+02 -4.975000E+03  7.473453E-09  2.793534E-10 -1.303614E-10  7.467092E-09  4.273443E-11  1.596799E-12 -7.451526E-13  4.269809E-11  0.000000E+00  0.000000E+00  0.000000E+00  0.000000E+00  0.000000E+00  0.000000E+00  0.000000E+00  0.000000E+00  7.604656E-03  2.774129E-04 -1.294557E-04  7.598491E-03                                                                                                                                                                                                                                                                                                                                                                                                                                                                                              
  7.800000E+02  1.250000E+02 -4.975000E+03  7.477935E-09  3.181426E-10 -1.295567E-10  7.470041E-09  4.276035E-11  1.818521E-12 -7.405531E-13  4.271525E-11  0.000000E+00  0.000000E+00  0.000000E+00  0.000000E+00  0.000000E+00  0.000000E+00  0.000000E+00  0.000000E+00  7.609332E-03  3.159328E-04 -1.286567E-04  7.601682E-03                                                                                                                                                                                                                                                                                                                                                                                                                                                                                              
  8.000000E+02  1.250000E+02 -4.975000E+03  7.659437E-09  3.443182E-10 -1.293347E-10  7.650601E-09  4.379297E-11  1.968144E-12 -7.392843E-13  4.374247E-11  0.000000E+00  0.000000E+00  0.000000E+00  0.000000E+00  0.000000E+00  0.000000E+00  0.000000E+00  0.000000E+00  7.789959E-03  3.419272E-04 -1.284362E-04  7.781392E-03                                                                                                                                                                                                                                                                                                                                                                                                                                                                                              
  9.350000E+02  1.250000E+02 -4.975000E+03  7.786999E-09  3.954854E-10 -1.257333E-10  7.775933E-09  4.452176E-11  2.260622E-12 -7.186993E-13  4.445852E-11  0.000000E+00  0.000000E+00  0.000000E+00  0.000000E+00  0.000000E+00  0.000000E+00  0.000000E+00  0.000000E+00  7.918838E-03  3.927402E-04 -1.248603E-04  7.908107E-03                                                                                                                                                                                                                                                                                                                                                                                                                                                                                              
  1.185000E+03  1.250000E+02 -4.975000E+03  8.097760E-09  4.182328E-10 -1.596130E-10  8.085377E-09  4.629682E-11  2.390654E-12 -9.123599E-13  4.622606E-11  0.000000E+00  0.000000E+00  0.000000E+00  0.000000E+00  0.000000E+00  0.000000E+00  0.000000E+00  0.000000E+00  8.232536E-03  4.153318E-04 -1.585053E-04  8.220524E-03                                                                                                                                                                                                                                                                                                                                                                                                                                                                                              
  1.435000E+03  1.250000E+02 -4.975000E+03  8.503846E-09  1.981565E-10 -1.729602E-10  8.499778E-09  4.861454E-11  1.132682E-12 -9.886574E-13  4.859129E-11  0.000000E+00  0.000000E+00  0.000000E+00  0.000000E+00  0.000000E+00  0.000000E+00  0.000000E+00  0.000000E+00  8.641533E-03  1.967830E-04 -1.717614E-04  8.637585E-03                                                                                                                                                                                                                                                                                                                                                                                                                                                                                              
  1.250000E+02  1.250000E+02 -4.725000E+03  8.458282E-09 -7.148178E-11 -6.510965E-11  8.457729E-09  4.645985E-11 -4.029657E-13 -3.670466E-13  4.645665E-11  0.000000E+00  0.000000E+00  0.000000E+00  0.000000E+00  0.000000E+00  0.000000E+00  0.000000E+00  0.000000E+00  8.174475E-03 -6.722419E-05 -6.123511E-05  8.173969E-03                                                                                                                                                                                                                                                                                                                                                                                                                                                                                              
  3.750000E+02  1.250000E+02 -4.725000E+03  8.005737E-09 -1.239131E-10 -7.440418E-11  8.004432E-09  4.398382E-11 -6.984901E-13 -4.193857E-13  4.397627E-11  0.000000E+00  0.000000E+00  0.000000E+00  0.000000E+00  0.000000E+00  0.000000E+00  0.000000E+00  0.000000E+00  7.736839E-03 -1.164969E-04 -6.993992E-05  7.735646E-03                                                                                                                                                                                                                                                                                                                                                                                                                                                                                              
  6.250000E+02  1.250000E+02 -4.725000E+03  7.382186E-09  6.072276E-11 -9.483506E-11  7.381327E-09  4.057542E-11  3.421985E-13 -5.344146E-13  4.057046E-11  0.000000E+00  0.000000E+00  0.000000E+00  0.000000E+00  0.000000E+00  0.000000E+00  0.000000E+00  0.000000E+00  7.134863E-03  5.706461E-05 -8.903649E-05  7.134079E-03                                                                                                                                                                                                                                                                                                                                                                                                                                                                                              
  7.600000E+02  1.250000E+02 -4.725000E+03  7.312345E-09  2.452591E-10 -9.976228E-11  7.307550E-09  4.020488E-11  1.382251E-12 -5.622100E-13  4.017718E-11  0.000000E+00  0.000000E+00  0.000000E+00  0.000000E+00  0.000000E+00  0.000000E+00  0.000000E+00  0.000000E+00  7.068962E-03  2.304849E-04 -9.370105E-05  7.064582E-03                                                                                                                                                                                                                                                                                                                                                                                                                                                                                              
  7.800000E+02  1.250000E+02 -4.725000E+03  7.288399E-09  2.849193E-10 -1.011897E-10  7.282125E-09  4.007742E-11  1.605822E-12 -5.702597E-13  4.004117E-11  0.000000E+00  0.000000E+00  0.000000E+00  0.000000E+00  0.000000E+00  0.000000E+00  0.000000E+00  0.000000E+00  7.046277E-03  2.677564E-04 -9.504942E-05  7.040546E-03                                                                                                                                                                                                                                                                                                                                                                                                                                                                                              
  8.000000E+02  1.250000E+02 -4.725000E+03  7.912430E-09  3.042663E-10 -1.034838E-10  7.905901E-09  4.345968E-11  1.714983E-12 -5.832295E-13  4.342191E-11  0.000000E+00  0.000000E+00  0.000000E+00  0.000000E+00  0.000000E+00  0.000000E+00  0.000000E+00  0.000000E+00  7.643634E-03  2.860016E-04 -9.721365E-05  7.637663E-03                                                                                                                                                                                                                                                                                                                                                                                                                                                                                              
  9.350000E+02  1.250000E+02 -4.725000E+03  8.044449E-09  3.231856E-10 -1.133064E-10  8.037156E-09  4.419232E-11  1.821808E-12 -6.386527E-13  4.415013E-11  0.000000E+00  0.000000E+00  0.000000E+00  0.000000E+00  0.000000E+00  0.000000E+00  0.000000E+00  0.000000E+00  7.772828E-03  3.038914E-04 -1.065003E-04  7.766155E-03                                                                                                                                                                                                                                                                                                                                                                                                                                                                                              
  1.185000E+03  1.250000E+02 -4.725000E+03  8.516830E-09  3.346726E-10 -1.453164E-10  8.509011E-09  4.678294E-11  1.886837E-12 -8.191778E-13  4.673769E-11  0.000000E+00  0.000000E+00  0.000000E+00  0.000000E+00  0.000000E+00  0.000000E+00  0.000000E+00  0.000000E+00  8.230500E-03  3.148247E-04 -1.366301E-04  8.223342E-03                                                                                                                                                                                                                                                                                                                                                                                                                                                                                              