Title="TOUGHREACT V3.30-OMP flowvector.tec: Liq & Gas Fluxes (kg/s/m^2), Pore Velocities (m/s), & Heat Fluxes (J/s/m2)"                                                                                                                                                                                                                                                                                                                                                                                                                                                                                                                                                                                                                                                                                                         
Variables= "X(m)"     "Y(m)"      "Z(m)"     "FluxLiq"   "FluxLiq_X"   "FluxLiq_Y"   "FluxLiq_Z"   "PorVelLiq"  "PorVelLiqX"  "PorVelLiqY"  "PorVelLiqZ"     "FluxGas"   "FluxGas_X"   "FluxGas_Y"   "FluxGas_Z"   "PorVelGas"  "PorVelGasX"  "PorVelGasY"  "PorVelGasZ"    "HeatFlux"  "HeatFlux_X"  "HeatFlux_Y"  "HeatFlux_Z"                                                                                                                                                                                                                                                                                                                                                                                                                                                                                                
Zone T= "1.33000000E+10 sec" I=     9 J=    10 K=    23 F=Point
  1.250000E+02  1.250000E+02 -5.425000E+03  3.702422E-09  3.297741E-11 -1.078878E-10  3.700703E-09  2.161350E-11  1.938729E-13 -6.342677E-13  2.160332E-11  0.000000E+00  0.000000E+00  0.000000E+00  0.000000E+00  0.000000E+00  0.000000E+00  0.000000E+00  0.000000E+00  4.045807E-03  3.603593E-05 -1.178940E-04  4.043928E-03                                                                                                                                                                                                                                                                                                                                                                                                                                                                                              
  3.750000E+02  1.250000E+02 -5.425000E+03  3.661496E-09  1.809385E-10 -1.140707E-10  3.655243E-09  2.137497E-11  1.063731E-12 -6.706172E-13  2.133795E-11  0.000000E+00  0.000000E+00  0.000000E+00  0.000000E+00  0.000000E+00  0.000000E+00  0.000000E+00  0.000000E+00  4.001087E-03  1.977199E-04 -1.246505E-04  3.994254E-03                                                                                                                                                                                                                                                                                                                                                                                                                                                                                              
  6.250000E+02  1.250000E+02 -5.425000E+03  3.662707E-09  4.751969E-10 -1.355456E-10  3.629220E-09  2.138430E-11  2.793665E-12 -7.968675E-13  2.118605E-11  0.000000E+00  0.000000E+00  0.000000E+00  0.000000E+00  0.000000E+00  0.000000E+00  0.000000E+00  0.000000E+00  4.002412E-03  5.192700E-04 -1.481172E-04  3.965820E-03                                                                                                                                                                                                                                                                                                                                                                                                                                                                                              
  7.600000E+02  1.250000E+02 -5.425000E+03  3.728381E-09  6.658474E-10 -1.586491E-10  3.665011E-09  2.177014E-11  3.914494E-12 -9.326924E-13  2.139499E-11  0.000000E+00  0.000000E+00  0.000000E+00  0.000000E+00  0.000000E+00  0.000000E+00  0.000000E+00  0.000000E+00  4.074177E-03  7.276028E-04 -1.733634E-04  4.004929E-03                                                                                                                                                                                                                                                                                                                                                                                                                                                                                              
  7.800000E+02  1.250000E+02 -5.425000E+03  3.738326E-09  6.880746E-10 -1.621861E-10  3.670876E-09  2.182853E-11  4.045168E-12 -9.534868E-13  2.142923E-11  0.000000E+00  0.000000E+00  0.000000E+00  0.000000E+00  0.000000E+00  0.000000E+00  0.000000E+00  0.000000E+00  4.085044E-03  7.518914E-04 -1.772285E-04  4.011339E-03                                                                                                                                                                                                                                                                                                                                                                                                                                                                                              
  8.000000E+02  1.250000E+02 -5.425000E+03  3.748738E-09  7.092197E-10 -1.658324E-10  3.677301E-09  2.188963E-11  4.169480E-12 -9.749230E-13  2.146674E-11  0.000000E+00  0.000000E+00  0.000000E+00  0.000000E+00  0.000000E+00  0.000000E+00  0.000000E+00  0.000000E+00  4.096422E-03  7.749976E-04 -1.812130E-04  4.018359E-03                                                                                                                                                                                                                                                                                                                                                                                                                                                                                              
  9.350000E+02  1.250000E+02 -5.425000E+03  3.812730E-09  7.945655E-10 -1.911485E-10  3.724115E-09  2.226460E-11  4.671226E-12 -1.123756E-12  2.174004E-11  0.000000E+00  0.000000E+00  0.000000E+00  0.000000E+00  0.000000E+00  0.000000E+00  0.000000E+00  0.000000E+00  4.166347E-03  8.682587E-04 -2.088770E-04  4.069514E-03                                                                                                                                                                                                                                                                                                                                                                                                                                                                                              
  1.185000E+03  1.250000E+02 -5.425000E+03  3.950693E-09  7.568307E-10 -2.477965E-10  3.869597E-09  2.306940E-11  4.449387E-12 -1.456789E-12  2.258933E-11  0.000000E+00  0.000000E+00  0.000000E+00  0.000000E+00  0.000000E+00  0.000000E+00  0.000000E+00  0.000000E+00  4.317102E-03  8.270238E-04 -2.707786E-04  4.228485E-03                                                                                                                                                                                                                                                                                                                                                                                                                                                                                              
  1.435000E+03  1.250000E+02 -5.425000E+03  4.039651E-09  3.220220E-10 -2.852850E-10  4.016677E-09  2.358397E-11  1.893160E-12 -1.677184E-12  2.344796E-11  0.000000E+00  0.000000E+00  0.000000E+00  0.000000E+00  0.000000E+00  0.000000E+00  0.000000E+00  0.000000E+00  4.414309E-03  3.518880E-04 -3.117438E-04  4.389204E-03                                                                                                                                                                                                                                                                                                                                                                                                                                                                                              
  1.250000E+02  1.250000E+02 -5.225000E+03  7.688824E-09 -3.583762E-12 -1.355506E-10  7.687628E-09  4.456032E-11 -2.075782E-14 -7.851341E-13  4.455340E-11  0.000000E+00  0.000000E+00  0.000000E+00  0.000000E+00  0.000000E+00  0.000000E+00  0.000000E+00  0.000000E+00  8.197848E-03 -3.732779E-06 -1.411870E-04  8.196631E-03                                                                                                                                                                                                                                                                                                                                                                                                                                                                                              
  3.750000E+02  1.250000E+02 -5.225000E+03  7.473157E-09  1.198153E-10 -1.402234E-10  7.470881E-09  4.331521E-11  6.939928E-13 -8.122000E-13  4.330203E-11  0.000000E+00  0.000000E+00  0.000000E+00  0.000000E+00  0.000000E+00  0.000000E+00  0.000000E+00  0.000000E+00  7.970866E-03  1.247974E-04 -1.460542E-04  7.968551E-03                                                                                                                                                                                                                                                                                                                                                                                                                                                                                              
  6.250000E+02  1.250000E+02 -5.225000E+03  7.343458E-09  4.938915E-10 -1.668832E-10  7.324930E-09  4.256703E-11  2.860714E-12 -9.666190E-13  4.245979E-11  0.000000E+00  0.000000E+00  0.000000E+00  0.000000E+00  0.000000E+00  0.000000E+00  0.000000E+00  0.000000E+00  7.834047E-03  5.144285E-04 -1.738229E-04  7.815206E-03                                                                                                                                                                                                                                                                                                                                                                                                                                                                                              
  7.600000E+02  1.250000E+02 -5.225000E+03  7.509151E-09  7.575541E-10 -1.992461E-10  7.468183E-09  4.352447E-11  4.387899E-12 -1.154072E-12  4.328734E-11  0.000000E+00  0.000000E+00  0.000000E+00  0.000000E+00  0.000000E+00  0.000000E+00  0.000000E+00  0.000000E+00  8.007917E-03  7.890547E-04 -2.075314E-04  7.966245E-03                                                                                                                                                                                                                                                                                                                                                                                                                                                                                              
  7.800000E+02  1.250000E+02 -5.225000E+03  7.536799E-09  7.900788E-10 -2.042568E-10  7.492489E-09  4.368420E-11  4.576290E-12 -1.183095E-12  4.342773E-11  0.000000E+00  0.000000E+00  0.000000E+00  0.000000E+00  0.000000E+00  0.000000E+00  0.000000E+00  0.000000E+00  8.036935E-03  8.229318E-04 -2.127505E-04  7.991861E-03                                                                                                                                                                                                                                                                                                                                                                                                                                                                                              
  8.000000E+02  1.250000E+02 -5.225000E+03  7.568970E-09  8.211159E-10 -2.094799E-10  7.521383E-09  4.387004E-11  4.756063E-12 -1.213348E-12  4.359459E-11  0.000000E+00  0.000000E+00  0.000000E+00  0.000000E+00  0.000000E+00  0.000000E+00  0.000000E+00  0.000000E+00  8.070695E-03  8.552594E-04 -2.181907E-04  8.022284E-03                                                                                                                                                                                                                                                                                                                                                                                                                                                                                              
  9.350000E+02  1.250000E+02 -5.225000E+03  7.783490E-09  9.547412E-10 -2.460457E-10  7.720793E-09  4.510924E-11  5.530049E-12 -1.425145E-12  4.474629E-11  0.000000E+00  0.000000E+00  0.000000E+00  0.000000E+00  0.000000E+00  0.000000E+00  0.000000E+00  0.000000E+00  8.296183E-03  9.944408E-04 -2.562769E-04  8.232379E-03                                                                                                                                                                                                                                                                                                                                                                                                                                                                                              
  1.185000E+03  1.250000E+02 -5.225000E+03  8.387369E-09  9.642167E-10 -3.336696E-10  8.325077E-09  4.859735E-11  5.584939E-12 -1.932681E-12  4.823667E-11  0.000000E+00  0.000000E+00  0.000000E+00  0.000000E+00  0.000000E+00  0.000000E+00  0.000000E+00  0.000000E+00  8.932672E-03  1.004310E-03 -3.475440E-04  8.869228E-03                                                                                                                                                                                                                                                                                                                                                                                                                                                                                              
  1.435000E+03  1.250000E+02 -5.225000E+03  9.010052E-09  4.275741E-10 -3.888930E-10  8.991495E-09  5.219234E-11  2.476598E-12 -2.252549E-12  5.208486E-11  0.000000E+00  0.000000E+00  0.000000E+00  0.000000E+00  0.000000E+00  0.000000E+00  0.000000E+00  0.000000E+00  9.589796E-03  4.453531E-04 -4.050635E-04  9.570882E-03                                                                                                                                                                                                                                                                                                                                                                                                                                                                                              
  1.250000E+02  1.250000E+02 -4.975000E+03  8.562009E-09 -1.686684E-10 -2.657934E-10  8.556220E-09  4.892866E-11 -9.639526E-13 -1.519029E-12  4.889558E-11  0.000000E+00  0.000000E+00  0.000000E+00  0.000000E+00  0.000000E+00  0.000000E+00  0.000000E+00  0.000000E+00  8.695527E-03 -1.674835E-04 -2.639262E-04  8.689907E-03                                                                                                                                                                                                                                                                                                                                                                                                                                                                                              
  3.750000E+02  1.250000E+02 -4.975000E+03  7.872640E-09 -1.643522E-10 -2.596167E-10  7.866642E-09  4.499922E-11 -9.392854E-13 -1.483728E-12  4.496494E-11  0.000000E+00  0.000000E+00  0.000000E+00  0.000000E+00  0.000000E+00  0.000000E+00  0.000000E+00  0.000000E+00  8.002660E-03 -1.631976E-04 -2.577931E-04  7.996842E-03                                                                                                                                                                                                                                                                                                                                                                                                                                                                                              
  6.250000E+02  1.250000E+02 -4.975000E+03  7.327881E-09  5.580726E-10 -3.094095E-10  7.300045E-09  4.189558E-11  3.189424E-12 -1.768296E-12  4.173656E-11  0.000000E+00  0.000000E+00  0.000000E+00  0.000000E+00  0.000000E+00  0.000000E+00  0.000000E+00  0.000000E+00  7.455368E-03  5.541511E-04 -3.072352E-04  7.428393E-03                                                                                                                                                                                                                                                                                                                                                                                                                                                                                              
  7.600000E+02  1.250000E+02 -4.975000E+03  7.646784E-09  1.154461E-09 -3.821059E-10  7.549471E-09  4.371712E-11  6.597829E-12 -2.183762E-12  4.316117E-11  0.000000E+00  0.000000E+00  0.000000E+00  0.000000E+00  0.000000E+00  0.000000E+00  0.000000E+00  0.000000E+00  7.775617E-03  1.146348E-03 -3.794210E-04  7.681286E-03                                                                                                                                                                                                                                                                                                                                                                                                                                                                                              
  7.800000E+02  1.250000E+02 -4.975000E+03  7.709634E-09  1.248406E-09 -3.941490E-10  7.597669E-09  4.407592E-11  7.134732E-12 -2.252589E-12  4.343625E-11  0.000000E+00  0.000000E+00  0.000000E+00  0.000000E+00  0.000000E+00  0.000000E+00  0.000000E+00  0.000000E+00  7.838583E-03  1.239632E-03 -3.913795E-04  7.730040E-03                                                                                                                                                                                                                                                                                                                                                                                                                                                                                              
  8.000000E+02  1.250000E+02 -4.975000E+03  7.957997E-09  1.328007E-09 -4.075883E-10  7.835814E-09  4.548954E-11  7.589662E-12 -2.329397E-12  4.479140E-11  0.000000E+00  0.000000E+00  0.000000E+00  0.000000E+00  0.000000E+00  0.000000E+00  0.000000E+00  0.000000E+00  8.086137E-03  1.318675E-03 -4.047245E-04  7.967616E-03                                                                                                                                                                                                                                                                                                                                                                                                                                                                                              
  9.350000E+02  1.250000E+02 -4.975000E+03  8.532228E-09  1.644441E-09 -5.010490E-10  8.357253E-09  4.876468E-11  9.398124E-12 -2.863535E-12  4.776473E-11  0.000000E+00  0.000000E+00  0.000000E+00  0.000000E+00  0.000000E+00  0.000000E+00  0.000000E+00  0.000000E+00  8.662656E-03  1.632889E-03 -4.975294E-04  8.492806E-03                                                                                                                                                                                                                                                                                                                                                                                                                                                                                              
  1.185000E+03  1.250000E+02 -4.975000E+03  1.005903E-08  1.878722E-09 -7.494426E-10  9.853565E-09  5.747375E-11  1.073709E-11 -4.283136E-12  5.629922E-11  0.000000E+00  0.000000E+00  0.000000E+00  0.000000E+00  0.000000E+00  0.000000E+00  0.000000E+00  0.000000E+00  1.020061E-02  1.865527E-03 -7.441782E-04  1.000092E-02                                                                                                                                                                                                                                                                                                                                                                                                                                                                                              
  1.435000E+03  1.250000E+02 -4.975000E+03  1.195252E-08  9.145863E-10 -8.798264E-10  1.188495E-08  6.826553E-11  5.226968E-12 -5.028312E-12  6.787914E-11  0.000000E+00  0.000000E+00  0.000000E+00  0.000000E+00  0.000000E+00  0.000000E+00  0.000000E+00  0.000000E+00  1.210910E-02  9.081643E-04 -8.736491E-04  1.204335E-02                                                                                                                                                                                                                                                                                                                                                                                                                                                                                              
  1.250000E+02  1.250000E+02 -4.725000E+03  1.025413E-08 -4.605006E-10 -4.834485E-10  1.023237E-08  5.618621E-11 -2.595539E-12 -2.724900E-12  5.606004E-11  0.000000E+00  0.000000E+00  0.000000E+00  0.000000E+00  0.000000E+00  0.000000E+00  0.000000E+00  0.000000E+00  9.885300E-03 -4.330287E-04 -4.546331E-04  9.865341E-03                                                                                                                                                                                                                                                                                                                                                                                                                                                                                              
  3.750000E+02  1.250000E+02 -4.725000E+03  8.416573E-09 -6.215478E-10 -4.266739E-10  8.382740E-09  4.621940E-11 -3.503110E-12 -2.404568E-12  4.602368E-11  0.000000E+00  0.000000E+00  0.000000E+00  0.000000E+00  0.000000E+00  0.000000E+00  0.000000E+00  0.000000E+00  8.126827E-03 -5.843597E-04 -4.010349E-04  8.095864E-03                                                                                                                                                                                                                                                                                                                                                                                                                                                                                              
  6.250000E+02  1.250000E+02 -4.725000E+03  6.837397E-09  6.220519E-10 -3.792350E-10  6.798472E-09  3.765805E-11  3.505124E-12 -2.136700E-12  3.743364E-11  0.000000E+00  0.000000E+00  0.000000E+00  0.000000E+00  0.000000E+00  0.000000E+00  0.000000E+00  0.000000E+00  6.615934E-03  5.845227E-04 -3.560172E-04  6.580438E-03                                                                                                                                                                                                                                                                                                                                                                                                                                                                                              
  7.600000E+02  1.250000E+02 -4.725000E+03  6.359180E-09  1.739894E-09 -6.111729E-10  6.085919E-09  3.526519E-11  9.804162E-12 -3.443673E-12  3.369945E-11  0.000000E+00  0.000000E+00  0.000000E+00  0.000000E+00  0.000000E+00  0.000000E+00  0.000000E+00  0.000000E+00  6.166891E-03  1.634931E-03 -5.739899E-04  5.918453E-03                                                                                                                                                                                                                                                                                                                                                                                                                                                                                              
  7.800000E+02  1.250000E+02 -4.725000E+03  6.318447E-09  2.108894E-09 -6.559470E-10  5.919888E-09  3.510792E-11  1.188383E-11 -3.695990E-12  3.282804E-11  0.000000E+00  0.000000E+00  0.000000E+00  0.000000E+00  0.000000E+00  0.000000E+00  0.000000E+00  0.000000E+00  6.126210E-03  1.981671E-03 -6.160890E-04  5.764015E-03                                                                                                                                                                                                                                                                                                                                                                                                                                                                                              
  8.000000E+02  1.250000E+02 -4.725000E+03  9.080897E-09  2.311911E-09 -7.127293E-10  8.752701E-09  4.987447E-11  1.302875E-11 -4.016217E-12  4.797483E-11  0.000000E+00  0.000000E+00  0.000000E+00  0.000000E+00  0.000000E+00  0.000000E+00  0.000000E+00  0.000000E+00  8.740360E-03  2.172924E-03 -6.694847E-04  8.439436E-03                                                                                                                                                                                                                                                                                                                                                                                                                                                                                              
  9.350000E+02  1.250000E+02 -4.725000E+03  9.894122E-09  2.856373E-09 -1.075539E-09  9.411589E-09  5.441244E-11  1.609882E-11 -6.061245E-12  5.162173E-11  0.000000E+00  0.000000E+00  0.000000E+00  0.000000E+00  0.000000E+00  0.000000E+00  0.000000E+00  0.000000E+00  9.522098E-03  2.685612E-03 -1.010838E-03  9.079429E-03                                                                                                                                                                                                                                                                                                                                                                                                                                                                                              
  1.185000E+03  1.250000E+02 -4.725000E+03  1.309616E-08  3.723390E-09 -1.813253E-09  1.242409E-08  7.195820E-11  2.098858E-11 -1.021992E-11  6.806625E-11  0.000000E+00  0.000000E+00  0.000000E+00  0.000000E+00  0.000000E+00  0.000000E+00  0.000000E+00  0.000000E+00  1.258867E-02  3.502313E-03 -1.704697E-03  1.197090E-02                                                                                                                                                                                                                                                                                                                                                                                                                                                                                              