Title="TOUGHREACT V3.30-OMP flowvector.tec: Liq & Gas Fluxes (kg/s/m^2), Pore Velocities (m/s), & Heat Fluxes (J/s/m2)"                                                                                                                                                                                                                                                                                                                                                                                                                                                                                                                                                                                                                                                                                                         
Variables= "X(m)"     "Y(m)"      "Z(m)"     "FluxLiq"   "FluxLiq_X"   "FluxLiq_Y"   "FluxLiq_Z"   "PorVelLiq"  "PorVelLiqX"  "PorVelLiqY"  "PorVelLiqZ"     "FluxGas"   "FluxGas_X"   "FluxGas_Y"   "FluxGas_Z"   "PorVelGas"  "PorVelGasX"  "PorVelGasY"  "PorVelGasZ"    "HeatFlux"  "HeatFlux_X"  "HeatFlux_Y"  "HeatFlux_Z"                                                                                                                                                                                                                                                                                                                                                                                                                                                                                                
Zone T= "2.30000000E+10 sec" I=     9 J=    10 K=    23 F=Point
  1.250000E+02  1.250000E+02 -5.425000E+03  3.694715E-09  1.585610E-11 -5.539341E-11  3.694265E-09  2.159853E-11  9.347844E-14 -3.265675E-13  2.159586E-11  0.000000E+00  0.000000E+00  0.000000E+00  0.000000E+00  0.000000E+00  0.000000E+00  0.000000E+00  0.000000E+00  4.070111E-03  1.746714E-05 -6.102161E-05  4.069616E-03                                                                                                                                                                                                                                                                                                                                                                                                                                                                                              
  3.750000E+02  1.250000E+02 -5.425000E+03  3.671539E-09  9.299005E-11 -6.034289E-11  3.669866E-09  2.146318E-11  5.482158E-13 -3.557469E-13  2.145323E-11  0.000000E+00  0.000000E+00  0.000000E+00  0.000000E+00  0.000000E+00  0.000000E+00  0.000000E+00  0.000000E+00  4.044584E-03  1.024382E-04 -6.647403E-05  4.042740E-03                                                                                                                                                                                                                                                                                                                                                                                                                                                                                              
  6.250000E+02  1.250000E+02 -5.425000E+03  3.662579E-09  2.567800E-10 -7.346499E-11  3.652828E-09  2.141162E-11  1.513828E-12 -4.331074E-13  2.135364E-11  0.000000E+00  0.000000E+00  0.000000E+00  0.000000E+00  0.000000E+00  0.000000E+00  0.000000E+00  0.000000E+00  4.034715E-03  2.828701E-04 -8.092946E-05  4.023973E-03                                                                                                                                                                                                                                                                                                                                                                                                                                                                                              
  7.600000E+02  1.250000E+02 -5.425000E+03  3.692952E-09  3.655852E-10 -8.490326E-11  3.673831E-09  2.159011E-11  2.155281E-12 -5.005410E-13  2.147643E-11  0.000000E+00  0.000000E+00  0.000000E+00  0.000000E+00  0.000000E+00  0.000000E+00  0.000000E+00  0.000000E+00  4.068173E-03  4.027304E-04 -9.352990E-05  4.047110E-03                                                                                                                                                                                                                                                                                                                                                                                                                                                                                              
  7.800000E+02  1.250000E+02 -5.425000E+03  3.697647E-09  3.778457E-10 -8.664540E-11  3.677271E-09  2.161768E-11  2.227562E-12 -5.108117E-13  2.149653E-11  0.000000E+00  0.000000E+00  0.000000E+00  0.000000E+00  0.000000E+00  0.000000E+00  0.000000E+00  0.000000E+00  4.073345E-03  4.162366E-04 -9.544905E-05  4.050898E-03                                                                                                                                                                                                                                                                                                                                                                                                                                                                                              
  8.000000E+02  1.250000E+02 -5.425000E+03  3.702624E-09  3.894192E-10 -8.843553E-11  3.681026E-09  2.164689E-11  2.295793E-12 -5.213652E-13  2.151849E-11  0.000000E+00  0.000000E+00  0.000000E+00  0.000000E+00  0.000000E+00  0.000000E+00  0.000000E+00  0.000000E+00  4.078827E-03  4.289860E-04 -9.742106E-05  4.055035E-03                                                                                                                                                                                                                                                                                                                                                                                                                                                                                              
  9.350000E+02  1.250000E+02 -5.425000E+03  3.734669E-09  4.318867E-10 -1.008333E-10  3.708242E-09  2.183470E-11  2.546157E-12 -5.944553E-13  2.167759E-11  0.000000E+00  0.000000E+00  0.000000E+00  0.000000E+00  0.000000E+00  0.000000E+00  0.000000E+00  0.000000E+00  4.114127E-03  4.757683E-04 -1.110784E-04  4.085015E-03                                                                                                                                                                                                                                                                                                                                                                                                                                                                                              
  1.185000E+03  1.250000E+02 -5.425000E+03  3.808705E-09  4.054167E-10 -1.291952E-10  3.784861E-09  2.226726E-11  2.390106E-12 -7.616615E-13  2.212551E-11  0.000000E+00  0.000000E+00  0.000000E+00  0.000000E+00  0.000000E+00  0.000000E+00  0.000000E+00  0.000000E+00  4.195682E-03  4.466086E-04 -1.423220E-04  4.169416E-03                                                                                                                                                                                                                                                                                                                                                                                                                                                                                              
  1.435000E+03  1.250000E+02 -5.425000E+03  3.867330E-09  1.710425E-10 -1.484589E-10  3.860692E-09  2.260828E-11  1.008369E-12 -8.752294E-13  2.256881E-11  0.000000E+00  0.000000E+00  0.000000E+00  0.000000E+00  0.000000E+00  0.000000E+00  0.000000E+00  0.000000E+00  4.260262E-03  1.884210E-04 -1.635428E-04  4.252950E-03                                                                                                                                                                                                                                                                                                                                                                                                                                                                                              
  1.250000E+02  1.250000E+02 -5.225000E+03  7.588854E-09 -3.834035E-12 -6.854439E-11  7.588543E-09  4.401595E-11 -2.220897E-14 -3.970491E-13  4.401416E-11  0.000000E+00  0.000000E+00  0.000000E+00  0.000000E+00  0.000000E+00  0.000000E+00  0.000000E+00  0.000000E+00  8.126200E-03 -3.993522E-06 -7.139568E-05  8.125885E-03                                                                                                                                                                                                                                                                                                                                                                                                                                                                                              
  3.750000E+02  1.250000E+02 -5.225000E+03  7.477034E-09  5.730889E-11 -7.428466E-11  7.476445E-09  4.337007E-11  3.319667E-13 -4.303002E-13  4.336666E-11  0.000000E+00  0.000000E+00  0.000000E+00  0.000000E+00  0.000000E+00  0.000000E+00  0.000000E+00  0.000000E+00  8.008261E-03  5.969281E-05 -7.737481E-05  8.007665E-03                                                                                                                                                                                                                                                                                                                                                                                                                                                                                              
  6.250000E+02  1.250000E+02 -5.225000E+03  7.387644E-09  2.655783E-10 -9.295198E-11  7.382284E-09  4.285410E-11  1.538385E-12 -5.384325E-13  4.282309E-11  0.000000E+00  0.000000E+00  0.000000E+00  0.000000E+00  0.000000E+00  0.000000E+00  0.000000E+00  0.000000E+00  7.913998E-03  2.766259E-04 -9.681881E-05  7.908569E-03                                                                                                                                                                                                                                                                                                                                                                                                                                                                                              
  7.600000E+02  1.250000E+02 -5.225000E+03  7.479406E-09  4.181155E-10 -1.081299E-10  7.466927E-09  4.338443E-11  2.421971E-12 -6.263520E-13  4.331224E-11  0.000000E+00  0.000000E+00  0.000000E+00  0.000000E+00  0.000000E+00  0.000000E+00  0.000000E+00  0.000000E+00  8.010633E-03  4.355086E-04 -1.126281E-04  7.997993E-03                                                                                                                                                                                                                                                                                                                                                                                                                                                                                              
  7.800000E+02  1.250000E+02 -5.225000E+03  7.494911E-09  4.361824E-10 -1.104723E-10  7.481392E-09  4.347402E-11  2.526626E-12 -6.399205E-13  4.339582E-11  0.000000E+00  0.000000E+00  0.000000E+00  0.000000E+00  0.000000E+00  0.000000E+00  0.000000E+00  0.000000E+00  8.026960E-03  4.543270E-04 -1.150679E-04  8.013266E-03                                                                                                                                                                                                                                                                                                                                                                                                                                                                                              
  8.000000E+02  1.250000E+02 -5.225000E+03  7.513821E-09  4.531871E-10 -1.129107E-10  7.499292E-09  4.358326E-11  2.625127E-12 -6.540451E-13  4.349921E-11  0.000000E+00  0.000000E+00  0.000000E+00  0.000000E+00  0.000000E+00  0.000000E+00  0.000000E+00  0.000000E+00  8.046854E-03  4.720391E-04 -1.176077E-04  8.032136E-03                                                                                                                                                                                                                                                                                                                                                                                                                                                                                              
  9.350000E+02  1.250000E+02 -5.225000E+03  7.635657E-09  5.171143E-10 -1.299442E-10  7.617018E-09  4.428720E-11  2.995432E-12 -7.527136E-13  4.417937E-11  0.000000E+00  0.000000E+00  0.000000E+00  0.000000E+00  0.000000E+00  0.000000E+00  0.000000E+00  0.000000E+00  8.175276E-03  5.386255E-04 -1.353498E-04  8.156390E-03                                                                                                                                                                                                                                                                                                                                                                                                                                                                                              
  1.185000E+03  1.250000E+02 -5.225000E+03  7.949735E-09  5.103988E-10 -1.734716E-10  7.931437E-09  4.610215E-11  2.956534E-12 -1.004851E-12  4.599628E-11  0.000000E+00  0.000000E+00  0.000000E+00  0.000000E+00  0.000000E+00  0.000000E+00  0.000000E+00  0.000000E+00  8.507035E-03  5.316307E-04 -1.806878E-04  8.488485E-03                                                                                                                                                                                                                                                                                                                                                                                                                                                                                              
  1.435000E+03  1.250000E+02 -5.225000E+03  8.278206E-09  2.239694E-10 -2.019474E-10  8.272711E-09  4.799953E-11  1.297365E-12 -1.169801E-12  4.796774E-11  0.000000E+00  0.000000E+00  0.000000E+00  0.000000E+00  0.000000E+00  0.000000E+00  0.000000E+00  0.000000E+00  8.854084E-03  2.332863E-04 -2.103482E-04  8.848510E-03                                                                                                                                                                                                                                                                                                                                                                                                                                                                                              
  1.250000E+02  1.250000E+02 -4.975000E+03  8.130833E-09 -8.764474E-11 -1.293122E-10  8.129332E-09  4.647608E-11 -5.009298E-13 -7.390786E-13  4.646751E-11  0.000000E+00  0.000000E+00  0.000000E+00  0.000000E+00  0.000000E+00  0.000000E+00  0.000000E+00  0.000000E+00  8.263097E-03 -8.703022E-05 -1.284056E-04  8.261641E-03                                                                                                                                                                                                                                                                                                                                                                                                                                                                                              
  3.750000E+02  1.250000E+02 -4.975000E+03  7.802665E-09 -1.021781E-10 -1.372056E-10  7.800789E-09  4.460405E-11 -5.839945E-13 -7.841923E-13  4.459334E-11  0.000000E+00  0.000000E+00  0.000000E+00  0.000000E+00  0.000000E+00  0.000000E+00  0.000000E+00  0.000000E+00  7.932948E-03 -1.014616E-04 -1.362437E-04  7.931129E-03                                                                                                                                                                                                                                                                                                                                                                                                                                                                                              
  6.250000E+02  1.250000E+02 -4.975000E+03  7.450442E-09  2.986374E-10 -1.879470E-10  7.442081E-09  4.259623E-11  1.706848E-12 -1.074201E-12  4.254846E-11  0.000000E+00  0.000000E+00  0.000000E+00  0.000000E+00  0.000000E+00  0.000000E+00  0.000000E+00  0.000000E+00  7.579285E-03  2.965428E-04 -1.866286E-04  7.571182E-03                                                                                                                                                                                                                                                                                                                                                                                                                                                                                              
  7.600000E+02  1.250000E+02 -4.975000E+03  7.598843E-09  6.549379E-10 -2.161256E-10  7.567481E-09  4.344470E-11  3.743266E-12 -1.235255E-12  4.326551E-11  0.000000E+00  0.000000E+00  0.000000E+00  0.000000E+00  0.000000E+00  0.000000E+00  0.000000E+00  0.000000E+00  7.729193E-03  6.503441E-04 -2.146097E-04  7.698794E-03                                                                                                                                                                                                                                                                                                                                                                                                                                                                                              
  7.800000E+02  1.250000E+02 -4.975000E+03  7.626664E-09  7.124750E-10 -2.210381E-10  7.590094E-09  4.360371E-11  4.072119E-12 -1.263332E-12  4.339476E-11  0.000000E+00  0.000000E+00  0.000000E+00  0.000000E+00  0.000000E+00  0.000000E+00  0.000000E+00  0.000000E+00  7.757232E-03  7.074775E-04 -2.194878E-04  7.721784E-03                                                                                                                                                                                                                                                                                                                                                                                                                                                                                              
  8.000000E+02  1.250000E+02 -4.975000E+03  7.834529E-09  7.567203E-10 -2.268390E-10  7.794599E-09  4.478652E-11  4.325004E-12 -1.296488E-12  4.455834E-11  0.000000E+00  0.000000E+00  0.000000E+00  0.000000E+00  0.000000E+00  0.000000E+00  0.000000E+00  0.000000E+00  7.964281E-03  7.514136E-04 -2.252481E-04  7.925554E-03                                                                                                                                                                                                                                                                                                                                                                                                                                                                                              
  9.350000E+02  1.250000E+02 -4.975000E+03  8.139107E-09  8.917883E-10 -2.657154E-10  8.085739E-09  4.652429E-11  5.096986E-12 -1.518686E-12  4.621930E-11  0.000000E+00  0.000000E+00  0.000000E+00  0.000000E+00  0.000000E+00  0.000000E+00  0.000000E+00  0.000000E+00  8.270831E-03  8.855361E-04 -2.638524E-04  8.219055E-03                                                                                                                                                                                                                                                                                                                                                                                                                                                                                              
  1.185000E+03  1.250000E+02 -4.975000E+03  8.902746E-09  9.754089E-10 -3.898343E-10  8.840559E-09  5.088175E-11  5.574931E-12 -2.228087E-12  5.052631E-11  0.000000E+00  0.000000E+00  0.000000E+00  0.000000E+00  0.000000E+00  0.000000E+00  0.000000E+00  0.000000E+00  9.040547E-03  9.685735E-04 -3.871017E-04  8.980173E-03                                                                                                                                                                                                                                                                                                                                                                                                                                                                                              
  1.435000E+03  1.250000E+02 -4.975000E+03  9.894982E-09  4.696330E-10 -4.587062E-10  9.873181E-09  5.653919E-11  2.684184E-12 -2.621732E-12  5.641455E-11  0.000000E+00  0.000000E+00  0.000000E+00  0.000000E+00  0.000000E+00  0.000000E+00  0.000000E+00  0.000000E+00  1.003971E-02  4.663434E-04 -4.554934E-04  1.001853E-02                                                                                                                                                                                                                                                                                                                                                                                                                                                                                              
  1.250000E+02  1.250000E+02 -4.725000E+03  8.838452E-09 -1.145312E-10 -1.275901E-10  8.836789E-09  4.851406E-11 -6.455804E-13 -7.191948E-13  4.850443E-11  0.000000E+00  0.000000E+00  0.000000E+00  0.000000E+00  0.000000E+00  0.000000E+00  0.000000E+00  0.000000E+00  8.536546E-03 -1.077006E-04 -1.199874E-04  8.535023E-03                                                                                                                                                                                                                                                                                                                                                                                                                                                                                              
  3.750000E+02  1.250000E+02 -4.725000E+03  8.150964E-09 -1.342360E-10 -1.308149E-10  8.148809E-09  4.476792E-11 -7.566328E-13 -7.372715E-13  4.475546E-11  0.000000E+00  0.000000E+00  0.000000E+00  0.000000E+00  0.000000E+00  0.000000E+00  0.000000E+00  0.000000E+00  7.874994E-03 -1.262168E-04 -1.229562E-04  7.873023E-03                                                                                                                                                                                                                                                                                                                                                                                                                                                                                              
  6.250000E+02  1.250000E+02 -4.725000E+03  7.297695E-09  3.875108E-10 -1.637479E-10  7.285560E-09  4.013121E-11  2.183725E-12 -9.226562E-13  4.006113E-11  0.000000E+00  0.000000E+00  0.000000E+00  0.000000E+00  0.000000E+00  0.000000E+00  0.000000E+00  0.000000E+00  7.055093E-03  3.641374E-04 -1.537248E-04  7.044012E-03                                                                                                                                                                                                                                                                                                                                                                                                                                                                                              
  7.600000E+02  1.250000E+02 -4.725000E+03  7.001596E-09  8.946109E-10 -2.696350E-10  6.938971E-09  3.860314E-11  5.041393E-12 -1.519368E-12  3.824236E-11  0.000000E+00  0.000000E+00  0.000000E+00  0.000000E+00  0.000000E+00  0.000000E+00  0.000000E+00  0.000000E+00  6.778738E-03  8.406544E-04 -2.532342E-04  6.721642E-03                                                                                                                                                                                                                                                                                                                                                                                                                                                                                              
  7.800000E+02  1.250000E+02 -4.725000E+03  6.951302E-09  1.064510E-09 -2.900280E-10  6.863185E-09  3.835128E-11  5.999015E-12 -1.634297E-12  3.784391E-11  0.000000E+00  0.000000E+00  0.000000E+00  0.000000E+00  0.000000E+00  0.000000E+00  0.000000E+00  0.000000E+00  6.731348E-03  1.000308E-03 -2.724085E-04  6.651032E-03                                                                                                                                                                                                                                                                                                                                                                                                                                                                                              
  8.000000E+02  1.250000E+02 -4.725000E+03  8.514342E-09  1.151125E-09 -3.158576E-10  8.430253E-09  4.673468E-11  6.487581E-12 -1.779971E-12  4.624796E-11  0.000000E+00  0.000000E+00  0.000000E+00  0.000000E+00  0.000000E+00  0.000000E+00  0.000000E+00  0.000000E+00  8.212606E-03  1.081939E-03 -2.966973E-04  8.135618E-03                                                                                                                                                                                                                                                                                                                                                                                                                                                                                              
  9.350000E+02  1.250000E+02 -4.725000E+03  8.888766E-09  1.324974E-09 -4.769648E-10  8.776509E-09  4.881592E-11  7.468166E-12 -2.688133E-12  4.816632E-11  0.000000E+00  0.000000E+00  0.000000E+00  0.000000E+00  0.000000E+00  0.000000E+00  0.000000E+00  0.000000E+00  8.575558E-03  1.245780E-03 -4.482788E-04  8.472737E-03                                                                                                                                                                                                                                                                                                                                                                                                                                                                                              
  1.185000E+03  1.250000E+02 -4.725000E+03  1.034417E-08  1.628036E-09 -8.011449E-10  1.018379E-08  5.678178E-11  9.177758E-12 -4.515738E-12  5.585290E-11  0.000000E+00  0.000000E+00  0.000000E+00  0.000000E+00  0.000000E+00  0.000000E+00  0.000000E+00  0.000000E+00  9.973648E-03  1.531401E-03 -7.531949E-04  9.826554E-03                                                                                                                                                                                                                                                                                                                                                                                                                                                                                              