Title="TOUGHREACT V3.30-OMP flowvector.tec: Liq & Gas Fluxes (kg/s/m^2), Pore Velocities (m/s), & Heat Fluxes (J/s/m2)"                                                                                                                                                                                                                                                                                                                                                                                                                                                                                                                                                                                                                                                                                                         
Variables= "X(m)"     "Y(m)"      "Z(m)"     "FluxLiq"   "FluxLiq_X"   "FluxLiq_Y"   "FluxLiq_Z"   "PorVelLiq"  "PorVelLiqX"  "PorVelLiqY"  "PorVelLiqZ"     "FluxGas"   "FluxGas_X"   "FluxGas_Y"   "FluxGas_Z"   "PorVelGas"  "PorVelGasX"  "PorVelGasY"  "PorVelGasZ"    "HeatFlux"  "HeatFlux_X"  "HeatFlux_Y"  "HeatFlux_Z"                                                                                                                                                                                                                                                                                                                                                                                                                                                                                                
Zone T= "3.67000000E+10 sec" I=     9 J=    10 K=    23 F=Point
  1.250000E+02  1.250000E+02 -5.425000E+03  3.706551E-09 -5.588586E-12 -4.299513E-11  3.706297E-09  2.171014E-11 -3.307785E-14 -2.544805E-13  2.170862E-11  0.000000E+00  0.000000E+00  0.000000E+00  0.000000E+00  0.000000E+00  0.000000E+00  0.000000E+00  0.000000E+00  4.129669E-03 -6.226550E-06 -4.790322E-05  4.129386E-03                                                                                                                                                                                                                                                                                                                                                                                                                                                                                              
  3.750000E+02  1.250000E+02 -5.425000E+03  3.684850E-09  2.186987E-11 -4.527725E-11  3.684506E-09  2.158304E-11  1.294439E-13 -2.679881E-13  2.158099E-11  0.000000E+00  0.000000E+00  0.000000E+00  0.000000E+00  0.000000E+00  0.000000E+00  0.000000E+00  0.000000E+00  4.105492E-03  2.436642E-05 -5.044590E-05  4.105110E-03                                                                                                                                                                                                                                                                                                                                                                                                                                                                                              
  6.250000E+02  1.250000E+02 -5.425000E+03  3.667654E-09  1.262352E-10 -5.137404E-11  3.665121E-09  2.148260E-11  7.471638E-13 -3.040740E-13  2.146745E-11  0.000000E+00  0.000000E+00  0.000000E+00  0.000000E+00  0.000000E+00  0.000000E+00  0.000000E+00  0.000000E+00  4.086336E-03  1.406456E-04 -5.723871E-05  4.083514E-03                                                                                                                                                                                                                                                                                                                                                                                                                                                                                              
  7.600000E+02  1.250000E+02 -5.425000E+03  3.683466E-09  2.019561E-10 -5.572499E-11  3.677503E-09  2.157564E-11  1.195343E-12 -3.298265E-13  2.153998E-11  0.000000E+00  0.000000E+00  0.000000E+00  0.000000E+00  0.000000E+00  0.000000E+00  0.000000E+00  0.000000E+00  4.103953E-03  2.250105E-04 -6.208633E-05  4.097309E-03                                                                                                                                                                                                                                                                                                                                                                                                                                                                                              
  7.800000E+02  1.250000E+02 -5.425000E+03  3.686018E-09  2.105285E-10 -5.639082E-11  3.679569E-09  2.159065E-11  1.246081E-12 -3.337674E-13  2.155208E-11  0.000000E+00  0.000000E+00  0.000000E+00  0.000000E+00  0.000000E+00  0.000000E+00  0.000000E+00  0.000000E+00  4.106796E-03  2.345614E-04 -6.282816E-05  4.099611E-03                                                                                                                                                                                                                                                                                                                                                                                                                                                                                              
  8.000000E+02  1.250000E+02 -5.425000E+03  3.688794E-09  2.186163E-10 -5.707846E-11  3.681868E-09  2.160697E-11  1.293952E-12 -3.378374E-13  2.156554E-11  0.000000E+00  0.000000E+00  0.000000E+00  0.000000E+00  0.000000E+00  0.000000E+00  0.000000E+00  0.000000E+00  4.109888E-03  2.435724E-04 -6.359430E-05  4.102172E-03                                                                                                                                                                                                                                                                                                                                                                                                                                                                                              
  9.350000E+02  1.250000E+02 -5.425000E+03  3.707455E-09  2.482729E-10 -6.186531E-11  3.698615E-09  2.171651E-11  1.469484E-12 -3.661700E-13  2.166364E-11  0.000000E+00  0.000000E+00  0.000000E+00  0.000000E+00  0.000000E+00  0.000000E+00  0.000000E+00  0.000000E+00  4.130679E-03  2.766144E-04 -6.892757E-05  4.120830E-03                                                                                                                                                                                                                                                                                                                                                                                                                                                                                              
  1.185000E+03  1.250000E+02 -5.425000E+03  3.751879E-09  2.372535E-10 -7.464027E-11  3.743626E-09  2.197665E-11  1.404262E-12 -4.417828E-13  2.192729E-11  0.000000E+00  0.000000E+00  0.000000E+00  0.000000E+00  0.000000E+00  0.000000E+00  0.000000E+00  0.000000E+00  4.180170E-03  2.643370E-04 -8.316079E-05  4.170975E-03                                                                                                                                                                                                                                                                                                                                                                                                                                                                                              
  1.435000E+03  1.250000E+02 -5.425000E+03  3.789356E-09  1.002479E-10 -8.367335E-11  3.787106E-09  2.219543E-11  5.933499E-13 -4.952481E-13  2.218197E-11  0.000000E+00  0.000000E+00  0.000000E+00  0.000000E+00  0.000000E+00  0.000000E+00  0.000000E+00  0.000000E+00  4.221924E-03  1.116916E-04 -9.322498E-05  4.219417E-03                                                                                                                                                                                                                                                                                                                                                                                                                                                                                              
  1.250000E+02  1.250000E+02 -5.225000E+03  7.565566E-09 -2.237242E-11 -5.389931E-11  7.565341E-09  4.392671E-11 -1.296021E-13 -3.122356E-13  4.392541E-11  0.000000E+00  0.000000E+00  0.000000E+00  0.000000E+00  0.000000E+00  0.000000E+00  0.000000E+00  0.000000E+00  8.149326E-03 -2.330389E-05 -5.614340E-05  8.149099E-03                                                                                                                                                                                                                                                                                                                                                                                                                                                                                              
  3.750000E+02  1.250000E+02 -5.225000E+03  7.468979E-09 -1.119816E-11 -5.701010E-11  7.468753E-09  4.336846E-11 -6.487030E-14 -3.302563E-13  4.336716E-11  0.000000E+00  0.000000E+00  0.000000E+00  0.000000E+00  0.000000E+00  0.000000E+00  0.000000E+00  0.000000E+00  8.047141E-03 -1.166439E-05 -5.938375E-05  8.046914E-03                                                                                                                                                                                                                                                                                                                                                                                                                                                                                              
  6.250000E+02  1.250000E+02 -5.225000E+03  7.373152E-09  1.240320E-10 -6.721596E-11  7.371802E-09  4.281486E-11  7.185107E-13 -3.893784E-13  4.280706E-11  0.000000E+00  0.000000E+00  0.000000E+00  0.000000E+00  0.000000E+00  0.000000E+00  0.000000E+00  0.000000E+00  7.945884E-03  1.291962E-04 -7.001462E-05  7.944525E-03                                                                                                                                                                                                                                                                                                                                                                                                                                                                                              
  7.600000E+02  1.250000E+02 -5.225000E+03  7.426155E-09  2.321843E-10 -7.203843E-11  7.422175E-09  4.312131E-11  1.345031E-12 -4.173147E-13  4.309831E-11  0.000000E+00  0.000000E+00  0.000000E+00  0.000000E+00  0.000000E+00  0.000000E+00  0.000000E+00  0.000000E+00  8.001901E-03  2.418515E-04 -7.503786E-05  7.997893E-03                                                                                                                                                                                                                                                                                                                                                                                                                                                                                              
  7.800000E+02  1.250000E+02 -5.225000E+03  7.435481E-09  2.447992E-10 -7.279347E-11  7.431094E-09  4.317522E-11  1.418108E-12 -4.216886E-13  4.314986E-11  0.000000E+00  0.000000E+00  0.000000E+00  0.000000E+00  0.000000E+00  0.000000E+00  0.000000E+00  0.000000E+00  8.011751E-03  2.549916E-04 -7.582434E-05  8.007333E-03                                                                                                                                                                                                                                                                                                                                                                                                                                                                                              
  8.000000E+02  1.250000E+02 -5.225000E+03  7.447783E-09  2.565703E-10 -7.359428E-11  7.442999E-09  4.324629E-11  1.486298E-12 -4.263277E-13  4.321864E-11  0.000000E+00  0.000000E+00  0.000000E+00  0.000000E+00  0.000000E+00  0.000000E+00  0.000000E+00  0.000000E+00  8.024718E-03  2.672528E-04 -7.665848E-05  8.019900E-03                                                                                                                                                                                                                                                                                                                                                                                                                                                                                              
  9.350000E+02  1.250000E+02 -5.225000E+03  7.523530E-09  2.974187E-10 -7.925956E-11  7.517231E-09  4.368410E-11  1.722931E-12 -4.591464E-13  4.364769E-11  0.000000E+00  0.000000E+00  0.000000E+00  0.000000E+00  0.000000E+00  0.000000E+00  0.000000E+00  0.000000E+00  8.104781E-03  3.098020E-04 -8.255962E-05  8.098437E-03                                                                                                                                                                                                                                                                                                                                                                                                                                                                                              
  1.185000E+03  1.250000E+02 -5.225000E+03  7.705418E-09  2.956178E-10 -9.886511E-11  7.699110E-09  4.473580E-11  1.712500E-12 -5.727207E-13  4.469934E-11  0.000000E+00  0.000000E+00  0.000000E+00  0.000000E+00  0.000000E+00  0.000000E+00  0.000000E+00  0.000000E+00  8.297510E-03  3.079263E-04 -1.029815E-04  8.291155E-03                                                                                                                                                                                                                                                                                                                                                                                                                                                                                              
  1.435000E+03  1.250000E+02 -5.225000E+03  7.893335E-09  1.292968E-10 -1.119485E-10  7.891482E-09  4.582199E-11  7.490105E-13 -6.485125E-13  4.581127E-11  0.000000E+00  0.000000E+00  0.000000E+00  0.000000E+00  0.000000E+00  0.000000E+00  0.000000E+00  0.000000E+00  8.496565E-03  1.346803E-04 -1.166097E-04  8.494697E-03                                                                                                                                                                                                                                                                                                                                                                                                                                                                                              
  1.250000E+02  1.250000E+02 -4.975000E+03  7.985464E-09 -9.278597E-11 -1.044775E-10  7.984241E-09  4.565051E-11 -5.303448E-13 -5.971710E-13  4.564352E-11  0.000000E+00  0.000000E+00  0.000000E+00  0.000000E+00  0.000000E+00  0.000000E+00  0.000000E+00  0.000000E+00  8.117293E-03 -9.213777E-05 -1.037477E-04  8.116107E-03                                                                                                                                                                                                                                                                                                                                                                                                                                                                                              
  3.750000E+02  1.250000E+02 -4.975000E+03  7.720728E-09 -1.559701E-10 -1.109173E-10  7.718356E-09  4.413965E-11 -8.914912E-13 -6.339793E-13  4.412609E-11  0.000000E+00  0.000000E+00  0.000000E+00  0.000000E+00  0.000000E+00  0.000000E+00  0.000000E+00  0.000000E+00  7.850730E-03 -1.548803E-04 -1.101425E-04  7.848429E-03                                                                                                                                                                                                                                                                                                                                                                                                                                                                                              
  6.250000E+02  1.250000E+02 -4.975000E+03  7.392199E-09  1.144748E-10 -1.491941E-10  7.389807E-09  4.226599E-11  6.543121E-13 -8.527594E-13  4.225232E-11  0.000000E+00  0.000000E+00  0.000000E+00  0.000000E+00  0.000000E+00  0.000000E+00  0.000000E+00  0.000000E+00  7.520714E-03  1.136747E-04 -1.481510E-04  7.518395E-03                                                                                                                                                                                                                                                                                                                                                                                                                                                                                              
  7.600000E+02  1.250000E+02 -4.975000E+03  7.453075E-09  3.766180E-10 -1.508652E-10  7.442024E-09  4.261499E-11  2.152665E-12 -8.623117E-13  4.255185E-11  0.000000E+00  0.000000E+00  0.000000E+00  0.000000E+00  0.000000E+00  0.000000E+00  0.000000E+00  0.000000E+00  7.582805E-03  3.739858E-04 -1.498107E-04  7.572095E-03                                                                                                                                                                                                                                                                                                                                                                                                                                                                                              
  7.800000E+02  1.250000E+02 -4.975000E+03  7.463582E-09  4.197181E-10 -1.516073E-10  7.450228E-09  4.267526E-11  2.399017E-12 -8.665533E-13  4.259897E-11  0.000000E+00  0.000000E+00  0.000000E+00  0.000000E+00  0.000000E+00  0.000000E+00  0.000000E+00  0.000000E+00  7.593517E-03  4.167847E-04 -1.505477E-04  7.580575E-03                                                                                                                                                                                                                                                                                                                                                                                                                                                                                              
  8.000000E+02  1.250000E+02 -4.975000E+03  7.651482E-09  4.500495E-10 -1.530082E-10  7.636702E-09  4.374430E-11  2.572386E-12 -8.745614E-13  4.365984E-11  0.000000E+00  0.000000E+00  0.000000E+00  0.000000E+00  0.000000E+00  0.000000E+00  0.000000E+00  0.000000E+00  7.780557E-03  4.469048E-04 -1.519389E-04  7.766226E-03                                                                                                                                                                                                                                                                                                                                                                                                                                                                                              
  9.350000E+02  1.250000E+02 -4.975000E+03  7.824032E-09  5.196464E-10 -1.608281E-10  7.805100E-09  4.472949E-11  2.970191E-12 -9.192592E-13  4.462129E-11  0.000000E+00  0.000000E+00  0.000000E+00  0.000000E+00  0.000000E+00  0.000000E+00  0.000000E+00  0.000000E+00  7.954610E-03  5.160167E-04 -1.597046E-04  7.936248E-03                                                                                                                                                                                                                                                                                                                                                                                                                                                                                              
  1.185000E+03  1.250000E+02 -4.975000E+03  8.246007E-09  5.541366E-10 -2.187535E-10  8.224458E-09  4.713864E-11  3.167337E-12 -1.250351E-12  4.701549E-11  0.000000E+00  0.000000E+00  0.000000E+00  0.000000E+00  0.000000E+00  0.000000E+00  0.000000E+00  0.000000E+00  8.380277E-03  5.502683E-04 -2.172259E-04  8.359370E-03                                                                                                                                                                                                                                                                                                                                                                                                                                                                                              
  1.435000E+03  1.250000E+02 -4.975000E+03  8.796663E-09  2.637807E-10 -2.483755E-10  8.789199E-09  5.028004E-11  1.507722E-12 -1.419669E-12  5.023737E-11  0.000000E+00  0.000000E+00  0.000000E+00  0.000000E+00  0.000000E+00  0.000000E+00  0.000000E+00  0.000000E+00  8.934721E-03  2.619404E-04 -2.466427E-04  8.927474E-03                                                                                                                                                                                                                                                                                                                                                                                                                                                                                              
  1.250000E+02  1.250000E+02 -4.725000E+03  8.462204E-09 -7.076307E-11 -7.011104E-11  8.461617E-09  4.647408E-11 -3.988944E-13 -3.952217E-13  4.647069E-11  0.000000E+00  0.000000E+00  0.000000E+00  0.000000E+00  0.000000E+00  0.000000E+00  0.000000E+00  0.000000E+00  8.177087E-03 -6.654483E-05 -6.593542E-05  8.176551E-03                                                                                                                                                                                                                                                                                                                                                                                                                                                                                              
  3.750000E+02  1.250000E+02 -4.725000E+03  7.984702E-09 -1.069663E-10 -8.019874E-11  7.983583E-09  4.386340E-11 -6.029406E-13 -4.520251E-13  4.385692E-11  0.000000E+00  0.000000E+00  0.000000E+00  0.000000E+00  0.000000E+00  0.000000E+00  0.000000E+00  0.000000E+00  7.715731E-03 -1.005654E-04 -7.538303E-05  7.714707E-03                                                                                                                                                                                                                                                                                                                                                                                                                                                                                              
  6.250000E+02  1.250000E+02 -4.725000E+03  7.318039E-09  1.550342E-10 -1.080313E-10  7.315599E-09  4.022584E-11  8.736925E-13 -6.087491E-13  4.021174E-11  0.000000E+00  0.000000E+00  0.000000E+00  0.000000E+00  0.000000E+00  0.000000E+00  0.000000E+00  0.000000E+00  7.073085E-03  1.456872E-04 -1.014213E-04  7.070857E-03                                                                                                                                                                                                                                                                                                                                                                                                                                                                                              
  7.600000E+02  1.250000E+02 -4.725000E+03  7.183901E-09  4.171243E-10 -1.403068E-10  7.170408E-09  3.952348E-11  2.350750E-12 -7.906605E-13  3.944559E-11  0.000000E+00  0.000000E+00  0.000000E+00  0.000000E+00  0.000000E+00  0.000000E+00  0.000000E+00  0.000000E+00  6.947523E-03  3.919778E-04 -1.317761E-04  6.935205E-03                                                                                                                                                                                                                                                                                                                                                                                                                                                                                              
  7.800000E+02  1.250000E+02 -4.725000E+03  7.150928E-09  4.901841E-10 -1.468436E-10  7.132596E-09  3.935097E-11  2.762574E-12 -8.275045E-13  3.924516E-11  0.000000E+00  0.000000E+00  0.000000E+00  0.000000E+00  0.000000E+00  0.000000E+00  0.000000E+00  0.000000E+00  6.916466E-03  4.606339E-04 -1.379265E-04  6.899732E-03                                                                                                                                                                                                                                                                                                                                                                                                                                                                                              
  8.000000E+02  1.250000E+02 -4.725000E+03  8.031463E-09  5.256166E-10 -1.554510E-10  8.012737E-09  4.409913E-11  2.962470E-12 -8.760716E-13  4.399079E-11  0.000000E+00  0.000000E+00  0.000000E+00  0.000000E+00  0.000000E+00  0.000000E+00  0.000000E+00  0.000000E+00  7.755128E-03  4.940398E-04 -1.460252E-04  7.737998E-03                                                                                                                                                                                                                                                                                                                                                                                                                                                                                              
  9.350000E+02  1.250000E+02 -4.725000E+03  8.216109E-09  5.769222E-10 -2.055531E-10  8.193250E-09  4.512530E-11  3.251978E-12 -1.158545E-12  4.499306E-11  0.000000E+00  0.000000E+00  0.000000E+00  0.000000E+00  0.000000E+00  0.000000E+00  0.000000E+00  0.000000E+00  7.935406E-03  5.424539E-04 -1.931962E-04  7.914486E-03                                                                                                                                                                                                                                                                                                                                                                                                                                                                                              
  1.185000E+03  1.250000E+02 -4.725000E+03  8.929243E-09  6.534177E-10 -3.150517E-10  8.899728E-09  4.902934E-11  3.683716E-12 -1.775923E-12  4.885850E-11  0.000000E+00  0.000000E+00  0.000000E+00  0.000000E+00  0.000000E+00  0.000000E+00  0.000000E+00  0.000000E+00  8.623536E-03  6.146452E-04 -2.962044E-04  8.596502E-03                                                                                                                                                                                                                                                                                                                                                                                                                                                                                              