Title="TOUGHREACT V3.30-OMP flowvector.tec: Liq & Gas Fluxes (kg/s/m^2), Pore Velocities (m/s), & Heat Fluxes (J/s/m2)"                                                                                                                                                                                                                                                                                                                                                                                                                                                                                                                                                                                                                                                                                                         
Variables= "X(m)"     "Y(m)"      "Z(m)"     "FluxLiq"   "FluxLiq_X"   "FluxLiq_Y"   "FluxLiq_Z"   "PorVelLiq"  "PorVelLiqX"  "PorVelLiqY"  "PorVelLiqZ"     "FluxGas"   "FluxGas_X"   "FluxGas_Y"   "FluxGas_Z"   "PorVelGas"  "PorVelGasX"  "PorVelGasY"  "PorVelGasZ"    "HeatFlux"  "HeatFlux_X"  "HeatFlux_Y"  "HeatFlux_Z"                                                                                                                                                                                                                                                                                                                                                                                                                                                                                                
Zone T= "1.00000000E+10 sec" I=     9 J=    10 K=    23 F=Point
  1.250000E+02  1.250000E+02 -5.425000E+03  3.119829E-09  3.905745E-11 -1.553401E-10  3.115714E-09  1.820471E-11  2.294078E-13 -9.124052E-13  1.818038E-11  0.000000E+00  0.000000E+00  0.000000E+00  0.000000E+00  0.000000E+00  0.000000E+00  0.000000E+00  0.000000E+00  3.399777E-03  4.256215E-05 -1.692792E-04  3.395293E-03                                                                                                                                                                                                                                                                                                                                                                                                                                                                                              
  3.750000E+02  1.250000E+02 -5.425000E+03  3.062888E-09  2.264047E-10 -1.577943E-10  3.050431E-09  1.787311E-11  1.329811E-12 -9.268203E-13  1.779945E-11  0.000000E+00  0.000000E+00  0.000000E+00  0.000000E+00  0.000000E+00  0.000000E+00  0.000000E+00  0.000000E+00  3.337729E-03  2.467206E-04 -1.719537E-04  3.324154E-03                                                                                                                                                                                                                                                                                                                                                                                                                                                                                              
  6.250000E+02  1.250000E+02 -5.425000E+03  3.080713E-09  5.988129E-10 -1.785286E-10  3.016678E-09  1.798107E-11  3.517190E-12 -1.048606E-12  1.760252E-11  0.000000E+00  0.000000E+00  0.000000E+00  0.000000E+00  0.000000E+00  0.000000E+00  0.000000E+00  0.000000E+00  3.357155E-03  6.525462E-04 -1.945487E-04  3.287374E-03                                                                                                                                                                                                                                                                                                                                                                                                                                                                                              
  7.600000E+02  1.250000E+02 -5.425000E+03  3.180309E-09  8.372856E-10 -2.061073E-10  3.061183E-09  1.856636E-11  4.917887E-12 -1.210593E-12  1.786222E-11  0.000000E+00  0.000000E+00  0.000000E+00  0.000000E+00  0.000000E+00  0.000000E+00  0.000000E+00  0.000000E+00  3.465687E-03  9.124178E-04 -2.246021E-04  3.335871E-03                                                                                                                                                                                                                                                                                                                                                                                                                                                                                              
  7.800000E+02  1.250000E+02 -5.425000E+03  3.195121E-09  8.653824E-10 -2.103602E-10  3.068494E-09  1.865335E-11  5.082918E-12 -1.235573E-12  1.790488E-11  0.000000E+00  0.000000E+00  0.000000E+00  0.000000E+00  0.000000E+00  0.000000E+00  0.000000E+00  0.000000E+00  3.481828E-03  9.430356E-04 -2.292366E-04  3.343839E-03                                                                                                                                                                                                                                                                                                                                                                                                                                                                                              
  8.000000E+02  1.250000E+02 -5.425000E+03  3.210466E-09  8.921814E-10 -2.147747E-10  3.076520E-09  1.874344E-11  5.240325E-12 -1.261502E-12  1.795172E-11  0.000000E+00  0.000000E+00  0.000000E+00  0.000000E+00  0.000000E+00  0.000000E+00  0.000000E+00  0.000000E+00  3.498550E-03  9.722393E-04 -2.340472E-04  3.352585E-03                                                                                                                                                                                                                                                                                                                                                                                                                                                                                              
  9.350000E+02  1.250000E+02 -5.425000E+03  3.301114E-09  1.003725E-09 -2.456204E-10  3.135213E-09  1.927475E-11  5.895490E-12 -1.442678E-12  1.829420E-11  0.000000E+00  0.000000E+00  0.000000E+00  0.000000E+00  0.000000E+00  0.000000E+00  0.000000E+00  0.000000E+00  3.597331E-03  1.093792E-03 -2.676606E-04  3.416543E-03                                                                                                                                                                                                                                                                                                                                                                                                                                                                                              
  1.185000E+03  1.250000E+02 -5.425000E+03  3.477264E-09  9.598870E-10 -3.188112E-10  3.326912E-09  2.030149E-11  5.638008E-12 -1.872575E-12  1.941280E-11  0.000000E+00  0.000000E+00  0.000000E+00  0.000000E+00  0.000000E+00  0.000000E+00  0.000000E+00  0.000000E+00  3.789284E-03  1.046019E-03 -3.474188E-04  3.625440E-03                                                                                                                                                                                                                                                                                                                                                                                                                                                                                              
  1.435000E+03  1.250000E+02 -5.425000E+03  3.562653E-09  4.087811E-10 -3.697952E-10  3.519751E-09  2.079170E-11  2.401025E-12 -2.172037E-12  2.053806E-11  0.000000E+00  0.000000E+00  0.000000E+00  0.000000E+00  0.000000E+00  0.000000E+00  0.000000E+00  0.000000E+00  3.882333E-03  4.454615E-04 -4.029773E-04  3.835581E-03                                                                                                                                                                                                                                                                                                                                                                                                                                                                                              
  1.250000E+02  1.250000E+02 -5.225000E+03  5.633102E-09 -1.309894E-11 -1.998533E-10  5.629541E-09  3.267152E-11 -7.587210E-14 -1.157596E-12  3.265092E-11  0.000000E+00  0.000000E+00  0.000000E+00  0.000000E+00  0.000000E+00  0.000000E+00  0.000000E+00  0.000000E+00  6.017239E-03 -1.364349E-05 -2.081615E-04  6.013622E-03                                                                                                                                                                                                                                                                                                                                                                                                                                                                                              
  3.750000E+02  1.250000E+02 -5.225000E+03  5.314600E-09  1.428860E-10 -1.960246E-10  5.309061E-09  3.083301E-11  8.276294E-13 -1.135420E-12  3.080098E-11  0.000000E+00  0.000000E+00  0.000000E+00  0.000000E+00  0.000000E+00  0.000000E+00  0.000000E+00  0.000000E+00  5.682299E-03  1.488261E-04 -2.041740E-04  5.676679E-03                                                                                                                                                                                                                                                                                                                                                                                                                                                                                              
  6.250000E+02  1.250000E+02 -5.225000E+03  5.161605E-09  6.218208E-10 -2.177183E-10  5.119385E-09  2.995060E-11  3.601733E-12 -1.261076E-12  2.970650E-11  0.000000E+00  0.000000E+00  0.000000E+00  0.000000E+00  0.000000E+00  0.000000E+00  0.000000E+00  0.000000E+00  5.520314E-03  6.476714E-04 -2.267699E-04  5.477496E-03                                                                                                                                                                                                                                                                                                                                                                                                                                                                                              
  7.600000E+02  1.250000E+02 -5.225000E+03  5.387194E-09  9.527008E-10 -2.561360E-10  5.296094E-09  3.125403E-11  5.518271E-12 -1.483601E-12  3.072722E-11  0.000000E+00  0.000000E+00  0.000000E+00  0.000000E+00  0.000000E+00  0.000000E+00  0.000000E+00  0.000000E+00  5.756150E-03  9.923071E-04 -2.667847E-04  5.663693E-03                                                                                                                                                                                                                                                                                                                                                                                                                                                                                              
  7.800000E+02  1.250000E+02 -5.225000E+03  5.424302E-09  9.940472E-10 -2.621375E-10  5.325993E-09  3.146842E-11  5.757761E-12 -1.518363E-12  3.089991E-11  0.000000E+00  0.000000E+00  0.000000E+00  0.000000E+00  0.000000E+00  0.000000E+00  0.000000E+00  0.000000E+00  5.794972E-03  1.035372E-03 -2.730356E-04  5.695187E-03                                                                                                                                                                                                                                                                                                                                                                                                                                                                                              
  8.000000E+02  1.250000E+02 -5.225000E+03  5.466458E-09  1.033692E-09 -2.684434E-10  5.361118E-09  3.171194E-11  5.987395E-12 -1.554889E-12  3.110274E-11  0.000000E+00  0.000000E+00  0.000000E+00  0.000000E+00  0.000000E+00  0.000000E+00  0.000000E+00  0.000000E+00  5.839094E-03  1.076665E-03 -2.796036E-04  5.732158E-03                                                                                                                                                                                                                                                                                                                                                                                                                                                                                              
  9.350000E+02  1.250000E+02 -5.225000E+03  5.745366E-09  1.213482E-09 -3.129270E-10  5.607028E-09  3.332312E-11  7.028784E-12 -1.812549E-12  3.252293E-11  0.000000E+00  0.000000E+00  0.000000E+00  0.000000E+00  0.000000E+00  0.000000E+00  0.000000E+00  0.000000E+00  6.131657E-03  1.263929E-03 -3.259363E-04  5.991115E-03                                                                                                                                                                                                                                                                                                                                                                                                                                                                                              
  1.185000E+03  1.250000E+02 -5.225000E+03  6.541983E-09  1.235537E-09 -4.269930E-10  6.410044E-09  3.792414E-11  7.156543E-12 -2.473251E-12  3.716056E-11  0.000000E+00  0.000000E+00  0.000000E+00  0.000000E+00  0.000000E+00  0.000000E+00  0.000000E+00  0.000000E+00  6.971007E-03  1.286900E-03 -4.447438E-04  6.836741E-03                                                                                                                                                                                                                                                                                                                                                                                                                                                                                              
  1.435000E+03  1.250000E+02 -5.225000E+03  7.326787E-09  5.485656E-10 -5.048131E-10  7.288762E-09  4.245425E-11  3.177433E-12 -2.924008E-12  4.223408E-11  0.000000E+00  0.000000E+00  0.000000E+00  0.000000E+00  0.000000E+00  0.000000E+00  0.000000E+00  0.000000E+00  7.800018E-03  5.713699E-04 -5.257985E-04  7.761273E-03                                                                                                                                                                                                                                                                                                                                                                                                                                                                                              
  1.250000E+02  1.250000E+02 -4.975000E+03  5.047997E-09 -2.593405E-10 -4.107879E-10  5.024567E-09  2.886099E-11 -1.482156E-12 -2.347691E-12  2.872713E-11  0.000000E+00  0.000000E+00  0.000000E+00  0.000000E+00  0.000000E+00  0.000000E+00  0.000000E+00  0.000000E+00  5.134125E-03 -2.575164E-04 -4.078987E-04  5.111413E-03                                                                                                                                                                                                                                                                                                                                                                                                                                                                                              
  3.750000E+02  1.250000E+02 -4.975000E+03  3.970181E-09 -2.583112E-10 -3.702824E-10  3.944427E-09  2.272019E-11 -1.476273E-12 -2.116197E-12  2.257320E-11  0.000000E+00  0.000000E+00  0.000000E+00  0.000000E+00  0.000000E+00  0.000000E+00  0.000000E+00  0.000000E+00  4.051345E-03 -2.564943E-04 -3.676785E-04  4.026465E-03                                                                                                                                                                                                                                                                                                                                                                                                                                                                                              
  6.250000E+02  1.250000E+02 -4.975000E+03  3.304493E-09  6.921139E-10 -3.882675E-10  3.207787E-09  1.892921E-11  3.955493E-12 -2.218981E-12  1.837785E-11  0.000000E+00  0.000000E+00  0.000000E+00  0.000000E+00  0.000000E+00  0.000000E+00  0.000000E+00  0.000000E+00  3.380551E-03  6.872447E-04 -3.855359E-04  3.287428E-03                                                                                                                                                                                                                                                                                                                                                                                                                                                                                              
  7.600000E+02  1.250000E+02 -4.975000E+03  3.850158E-09  1.439315E-09 -4.748334E-10  3.539297E-09  2.204354E-11  8.225816E-12 -2.713715E-12  2.027040E-11  0.000000E+00  0.000000E+00  0.000000E+00  0.000000E+00  0.000000E+00  0.000000E+00  0.000000E+00  0.000000E+00  3.923165E-03  1.429188E-03 -4.714931E-04  3.623030E-03                                                                                                                                                                                                                                                                                                                                                                                                                                                                                              
  7.800000E+02  1.250000E+02 -4.975000E+03  3.951314E-09  1.553577E-09 -4.892085E-10  3.599994E-09  2.262084E-11  8.878845E-12 -2.795871E-12  2.061678E-11  0.000000E+00  0.000000E+00  0.000000E+00  0.000000E+00  0.000000E+00  0.000000E+00  0.000000E+00  0.000000E+00  4.023742E-03  1.542645E-03 -4.857672E-04  3.684396E-03                                                                                                                                                                                                                                                                                                                                                                                                                                                                                              
  8.000000E+02  1.250000E+02 -4.975000E+03  4.220445E-09  1.653498E-09 -5.052498E-10  3.850042E-09  2.415282E-11  9.449907E-12 -2.887550E-12  2.203906E-11  0.000000E+00  0.000000E+00  0.000000E+00  0.000000E+00  0.000000E+00  0.000000E+00  0.000000E+00  0.000000E+00  4.292299E-03  1.641865E-03 -5.016958E-04  3.934007E-03                                                                                                                                                                                                                                                                                                                                                                                                                                                                                              
  9.350000E+02  1.250000E+02 -4.975000E+03  4.978552E-09  2.106681E-09 -6.181296E-10  4.468309E-09  2.847773E-11  1.203991E-11 -3.532673E-12  2.556446E-11  0.000000E+00  0.000000E+00  0.000000E+00  0.000000E+00  0.000000E+00  0.000000E+00  0.000000E+00  0.000000E+00  5.051641E-03  2.091863E-03 -6.137825E-04  4.557022E-03                                                                                                                                                                                                                                                                                                                                                                                                                                                                                              
  1.185000E+03  1.250000E+02 -4.975000E+03  7.010680E-09  2.452609E-09 -9.432517E-10  6.499586E-09  4.006829E-11  1.401697E-11 -5.390795E-12  3.714743E-11  0.000000E+00  0.000000E+00  0.000000E+00  0.000000E+00  0.000000E+00  0.000000E+00  0.000000E+00  0.000000E+00  7.100526E-03  2.435360E-03 -9.366172E-04  6.603730E-03                                                                                                                                                                                                                                                                                                                                                                                                                                                                                              
  1.435000E+03  1.250000E+02 -4.975000E+03  9.354511E-09  1.194078E-09 -1.142876E-09  9.207328E-09  5.342181E-11  6.824327E-12 -6.531703E-12  5.257999E-11  0.000000E+00  0.000000E+00  0.000000E+00  0.000000E+00  0.000000E+00  0.000000E+00  0.000000E+00  0.000000E+00  9.469122E-03  1.185682E-03 -1.134841E-03  9.325801E-03                                                                                                                                                                                                                                                                                                                                                                                                                                                                                              
  1.250000E+02  1.250000E+02 -4.725000E+03  6.431414E-09 -8.433382E-10 -8.879571E-10  6.313747E-09  3.518063E-11 -4.753326E-12 -5.004847E-12  3.449687E-11  0.000000E+00  0.000000E+00  0.000000E+00  0.000000E+00  0.000000E+00  0.000000E+00  0.000000E+00  0.000000E+00  6.179378E-03 -7.930207E-04 -8.350241E-04  6.071126E-03                                                                                                                                                                                                                                                                                                                                                                                                                                                                                              
  3.750000E+02  1.250000E+02 -4.725000E+03  3.351442E-09 -1.136649E-09 -7.036859E-10  3.073275E-09  1.854823E-11 -6.406256E-12 -3.965684E-12  1.694904E-11  0.000000E+00  0.000000E+00  0.000000E+00  0.000000E+00  0.000000E+00  0.000000E+00  0.000000E+00  0.000000E+00  3.232907E-03 -1.068634E-03 -6.613964E-04  2.978634E-03                                                                                                                                                                                                                                                                                                                                                                                                                                                                                              
  6.250000E+02  1.250000E+02 -4.725000E+03  1.238854E-09  7.243923E-10 -4.905915E-10  8.771179E-10  7.063243E-12  4.081721E-12 -2.764099E-12  5.058529E-12  0.000000E+00  0.000000E+00  0.000000E+00  0.000000E+00  0.000000E+00  0.000000E+00  0.000000E+00  0.000000E+00  1.298382E-03  6.806839E-04 -4.605536E-04  1.005164E-03                                                                                                                                                                                                                                                                                                                                                                                                                                                                                              
  7.600000E+02  1.250000E+02 -4.725000E+03  2.423393E-09  2.216388E-09 -7.723688E-10  6.032427E-10  1.372470E-11  1.248913E-11 -4.351923E-12  3.667421E-12  0.000000E+00  0.000000E+00  0.000000E+00  0.000000E+00  0.000000E+00  0.000000E+00  0.000000E+00  0.000000E+00  2.426442E-03  2.082664E-03 -7.253748E-04  1.011911E-03                                                                                                                                                                                                                                                                                                                                                                                                                                                                                              
  7.800000E+02  1.250000E+02 -4.725000E+03  2.772848E-09  2.594635E-09 -8.243532E-10  5.263059E-10  1.568579E-11  1.462098E-11 -4.644873E-12  3.270510E-12  0.000000E+00  0.000000E+00  0.000000E+00  0.000000E+00  0.000000E+00  0.000000E+00  0.000000E+00  0.000000E+00  2.747850E-03  2.438092E-03 -7.742577E-04  1.003451E-03                                                                                                                                                                                                                                                                                                                                                                                                                                                                                              
  8.000000E+02  1.250000E+02 -4.725000E+03  4.267781E-09  2.829626E-09 -8.877162E-10  3.069061E-09  2.375710E-11  1.594629E-11 -5.002248E-12  1.688471E-11  0.000000E+00  0.000000E+00  0.000000E+00  0.000000E+00  0.000000E+00  0.000000E+00  0.000000E+00  0.000000E+00  4.071490E-03  2.659501E-03 -8.338495E-04  2.967959E-03                                                                                                                                                                                                                                                                                                                                                                                                                                                                                              
  9.350000E+02  1.250000E+02 -4.725000E+03  5.608196E-09  3.783452E-09 -1.305778E-09  3.928396E-09  3.124214E-11  2.132394E-11 -7.358737E-12  2.161504E-11  0.000000E+00  0.000000E+00  0.000000E+00  0.000000E+00  0.000000E+00  0.000000E+00  0.000000E+00  0.000000E+00  5.347207E-03  3.557259E-03 -1.227218E-03  3.799008E-03                                                                                                                                                                                                                                                                                                                                                                                                                                                                                              
  1.185000E+03  1.250000E+02 -4.725000E+03  9.987267E-09  5.138630E-09 -2.303797E-09  8.248182E-09  5.519581E-11  2.896614E-11 -1.298470E-11  4.515460E-11  0.000000E+00  0.000000E+00  0.000000E+00  0.000000E+00  0.000000E+00  0.000000E+00  0.000000E+00  0.000000E+00  9.543233E-03  4.833464E-03 -2.165856E-03  7.938513E-03                                                                                                                                                                                                                                                                                                                                                                                                                                                                                              