Title="TOUGHREACT V3.30-OMP flowvector.tec: Liq & Gas Fluxes (kg/s/m^2), Pore Velocities (m/s), & Heat Fluxes (J/s/m2)"                                                                                                                                                                                                                                                                                                                                                                                                                                                                                                                                                                                                                                                                                                         
Variables= "X(m)"     "Y(m)"      "Z(m)"     "FluxLiq"   "FluxLiq_X"   "FluxLiq_Y"   "FluxLiq_Z"   "PorVelLiq"  "PorVelLiqX"  "PorVelLiqY"  "PorVelLiqZ"     "FluxGas"   "FluxGas_X"   "FluxGas_Y"   "FluxGas_Z"   "PorVelGas"  "PorVelGasX"  "PorVelGasY"  "PorVelGasZ"    "HeatFlux"  "HeatFlux_X"  "HeatFlux_Y"  "HeatFlux_Z"                                                                                                                                                                                                                                                                                                                                                                                                                                                                                                
Zone T= "4.67000000E+10 sec" I=     9 J=    10 K=    23 F=Point
  1.250000E+02  1.250000E+02 -5.425000E+03  3.728681E-09 -1.188650E-11 -4.123489E-11  3.728434E-09  2.187100E-11 -7.055936E-14 -2.447741E-13  2.186952E-11  0.000000E+00  0.000000E+00  0.000000E+00  0.000000E+00  0.000000E+00  0.000000E+00  0.000000E+00  0.000000E+00  4.188588E-03 -1.335263E-05 -4.632095E-05  4.188310E-03                                                                                                                                                                                                                                                                                                                                                                                                                                                                                              
  3.750000E+02  1.250000E+02 -5.425000E+03  3.706725E-09  2.398811E-12 -4.268177E-11  3.706479E-09  2.174222E-11  1.423958E-14 -2.533630E-13  2.174074E-11  0.000000E+00  0.000000E+00  0.000000E+00  0.000000E+00  0.000000E+00  0.000000E+00  0.000000E+00  0.000000E+00  4.163926E-03  2.694689E-06 -4.794633E-05  4.163650E-03                                                                                                                                                                                                                                                                                                                                                                                                                                                                                              
  6.250000E+02  1.250000E+02 -5.425000E+03  3.687291E-09  9.328190E-11 -4.678396E-11  3.685814E-09  2.162840E-11  5.537301E-13 -2.777140E-13  2.161953E-11  0.000000E+00  0.000000E+00  0.000000E+00  0.000000E+00  0.000000E+00  0.000000E+00  0.000000E+00  0.000000E+00  4.142097E-03  1.047877E-04 -5.255454E-05  4.140438E-03                                                                                                                                                                                                                                                                                                                                                                                                                                                                                              
  7.600000E+02  1.250000E+02 -5.425000E+03  3.699870E-09  1.620092E-10 -4.925243E-11  3.695993E-09  2.170253E-11  9.617021E-13 -2.923671E-13  2.167924E-11  0.000000E+00  0.000000E+00  0.000000E+00  0.000000E+00  0.000000E+00  0.000000E+00  0.000000E+00  0.000000E+00  4.156227E-03  1.819921E-04 -5.532747E-05  4.151871E-03                                                                                                                                                                                                                                                                                                                                                                                                                                                                                              
  7.800000E+02  1.250000E+02 -5.425000E+03  3.701950E-09  1.698321E-10 -4.963201E-11  3.697719E-09  2.171478E-11  1.008139E-12 -2.946203E-13  2.168937E-11  0.000000E+00  0.000000E+00  0.000000E+00  0.000000E+00  0.000000E+00  0.000000E+00  0.000000E+00  0.000000E+00  4.158563E-03  1.907798E-04 -5.575387E-05  4.153811E-03                                                                                                                                                                                                                                                                                                                                                                                                                                                                                              
  8.000000E+02  1.250000E+02 -5.425000E+03  3.704225E-09  1.772238E-10 -5.002674E-11  3.699645E-09  2.172818E-11  1.052017E-12 -2.969634E-13  2.170066E-11  0.000000E+00  0.000000E+00  0.000000E+00  0.000000E+00  0.000000E+00  0.000000E+00  0.000000E+00  0.000000E+00  4.161119E-03  1.990833E-04 -5.619728E-05  4.155974E-03                                                                                                                                                                                                                                                                                                                                                                                                                                                                                              
  9.350000E+02  1.250000E+02 -5.425000E+03  3.719832E-09  2.047170E-10 -5.279925E-11  3.713819E-09  2.181993E-11  1.215220E-12 -3.134213E-13  2.178381E-11  0.000000E+00  0.000000E+00  0.000000E+00  0.000000E+00  0.000000E+00  0.000000E+00  0.000000E+00  0.000000E+00  4.178650E-03  2.299676E-04 -5.931175E-05  4.171896E-03                                                                                                                                                                                                                                                                                                                                                                                                                                                                                              
  1.185000E+03  1.250000E+02 -5.425000E+03  3.757261E-09  1.984225E-10 -6.154963E-11  3.751513E-09  2.203944E-11  1.177854E-12 -3.653644E-13  2.200491E-11  0.000000E+00  0.000000E+00  0.000000E+00  0.000000E+00  0.000000E+00  0.000000E+00  0.000000E+00  0.000000E+00  4.220692E-03  2.228966E-04 -6.914137E-05  4.214235E-03                                                                                                                                                                                                                                                                                                                                                                                                                                                                                              
  1.435000E+03  1.250000E+02 -5.425000E+03  3.789181E-09  8.410985E-11 -6.793510E-11  3.787638E-09  2.222609E-11  4.992841E-13 -4.032692E-13  2.221682E-11  0.000000E+00  0.000000E+00  0.000000E+00  0.000000E+00  0.000000E+00  0.000000E+00  0.000000E+00  0.000000E+00  4.256548E-03  9.448421E-05 -7.631440E-05  4.254815E-03                                                                                                                                                                                                                                                                                                                                                                                                                                                                                              
  1.250000E+02  1.250000E+02 -5.225000E+03  7.600129E-09 -2.834917E-11 -5.185942E-11  7.599899E-09  4.415980E-11 -1.642304E-13 -3.004282E-13  4.415848E-11  0.000000E+00  0.000000E+00  0.000000E+00  0.000000E+00  0.000000E+00  0.000000E+00  0.000000E+00  0.000000E+00  8.221330E-03 -2.953049E-05 -5.402040E-05  8.221099E-03                                                                                                                                                                                                                                                                                                                                                                                                                                                                                              
  3.750000E+02  1.250000E+02 -5.225000E+03  7.503970E-09 -3.075508E-11 -5.405068E-11  7.503712E-09  4.360380E-11 -1.781681E-13 -3.131225E-13  4.360231E-11  0.000000E+00  0.000000E+00  0.000000E+00  0.000000E+00  0.000000E+00  0.000000E+00  0.000000E+00  0.000000E+00  8.119372E-03 -3.203665E-05 -5.630301E-05  8.119114E-03                                                                                                                                                                                                                                                                                                                                                                                                                                                                                              
  6.250000E+02  1.250000E+02 -5.225000E+03  7.404039E-09  8.778294E-11 -6.178231E-11  7.403261E-09  4.302624E-11  5.085379E-13 -3.579129E-13  4.302175E-11  0.000000E+00  0.000000E+00  0.000000E+00  0.000000E+00  0.000000E+00  0.000000E+00  0.000000E+00  0.000000E+00  8.013573E-03  9.144091E-05 -6.435688E-05  8.012793E-03                                                                                                                                                                                                                                                                                                                                                                                                                                                                                              
  7.600000E+02  1.250000E+02 -5.225000E+03  7.447394E-09  1.862603E-10 -6.386391E-11  7.444790E-09  4.327699E-11  1.079030E-12 -3.699719E-13  4.326195E-11  0.000000E+00  0.000000E+00  0.000000E+00  0.000000E+00  0.000000E+00  0.000000E+00  0.000000E+00  0.000000E+00  8.059495E-03  1.940219E-04 -6.652521E-05  8.056885E-03                                                                                                                                                                                                                                                                                                                                                                                                                                                                                              
  7.800000E+02  1.250000E+02 -5.225000E+03  7.455204E-09  1.977280E-10 -6.420015E-11  7.452305E-09  4.332215E-11  1.145464E-12 -3.719198E-13  4.330541E-11  0.000000E+00  0.000000E+00  0.000000E+00  0.000000E+00  0.000000E+00  0.000000E+00  0.000000E+00  0.000000E+00  8.067760E-03  2.059675E-04 -6.687546E-05  8.064854E-03                                                                                                                                                                                                                                                                                                                                                                                                                                                                                              
  8.000000E+02  1.250000E+02 -5.225000E+03  7.465885E-09  2.084052E-10 -6.457019E-11  7.462697E-09  4.338387E-11  1.207318E-12 -3.740635E-13  4.336545E-11  0.000000E+00  0.000000E+00  0.000000E+00  0.000000E+00  0.000000E+00  0.000000E+00  0.000000E+00  0.000000E+00  8.079033E-03  2.170896E-04 -6.726092E-05  8.075835E-03                                                                                                                                                                                                                                                                                                                                                                                                                                                                                              
  9.350000E+02  1.250000E+02 -5.225000E+03  7.530390E-09  2.448208E-10 -6.725236E-11  7.526109E-09  4.375681E-11  1.418279E-12 -3.896017E-13  4.373208E-11  0.000000E+00  0.000000E+00  0.000000E+00  0.000000E+00  0.000000E+00  0.000000E+00  0.000000E+00  0.000000E+00  8.147341E-03  2.550228E-04 -7.005485E-05  8.143048E-03                                                                                                                                                                                                                                                                                                                                                                                                                                                                                              
  1.185000E+03  1.250000E+02 -5.225000E+03  7.681348E-09  2.455479E-10 -8.067677E-11  7.676999E-09  4.463005E-11  1.422492E-12 -4.673714E-13  4.460493E-11  0.000000E+00  0.000000E+00  0.000000E+00  0.000000E+00  0.000000E+00  0.000000E+00  0.000000E+00  0.000000E+00  8.307672E-03  2.557803E-04 -8.403871E-05  8.303308E-03                                                                                                                                                                                                                                                                                                                                                                                                                                                                                              
  1.435000E+03  1.250000E+02 -5.225000E+03  7.836471E-09  1.074757E-10 -8.960194E-11  7.835221E-09  4.552706E-11  6.226216E-13 -5.190766E-13  4.551985E-11  0.000000E+00  0.000000E+00  0.000000E+00  0.000000E+00  0.000000E+00  0.000000E+00  0.000000E+00  0.000000E+00  8.472337E-03  1.119545E-04 -9.333592E-05  8.471083E-03                                                                                                                                                                                                                                                                                                                                                                                                                                                                                              
  1.250000E+02  1.250000E+02 -4.975000E+03  7.996154E-09 -9.775349E-11 -1.019392E-10  7.994907E-09  4.571349E-11 -5.587533E-13 -5.826788E-13  4.570637E-11  0.000000E+00  0.000000E+00  0.000000E+00  0.000000E+00  0.000000E+00  0.000000E+00  0.000000E+00  0.000000E+00  8.128738E-03 -9.707266E-05 -1.012293E-04  8.127528E-03                                                                                                                                                                                                                                                                                                                                                                                                                                                                                              
  3.750000E+02  1.250000E+02 -4.975000E+03  7.736935E-09 -1.759915E-10 -1.072753E-10  7.734189E-09  4.423397E-11 -1.005957E-12 -6.131788E-13  4.421828E-11  0.000000E+00  0.000000E+00  0.000000E+00  0.000000E+00  0.000000E+00  0.000000E+00  0.000000E+00  0.000000E+00  7.867663E-03 -1.747655E-04 -1.065281E-04  7.865000E-03                                                                                                                                                                                                                                                                                                                                                                                                                                                                                              
  6.250000E+02  1.250000E+02 -4.975000E+03  7.407808E-09  6.521238E-11 -1.413847E-10  7.406171E-09  4.235663E-11  3.727493E-13 -8.081445E-13  4.234728E-11  0.000000E+00  0.000000E+00  0.000000E+00  0.000000E+00  0.000000E+00  0.000000E+00  0.000000E+00  0.000000E+00  7.536961E-03  6.475796E-05 -1.403991E-04  7.535375E-03                                                                                                                                                                                                                                                                                                                                                                                                                                                                                              
  7.600000E+02  1.250000E+02 -4.975000E+03  7.446579E-09  3.065997E-10 -1.360235E-10  7.439021E-09  4.257950E-11  1.752503E-12 -7.775008E-13  4.253632E-11  0.000000E+00  0.000000E+00  0.000000E+00  0.000000E+00  0.000000E+00  0.000000E+00  0.000000E+00  0.000000E+00  7.576847E-03  3.044632E-04 -1.350755E-04  7.569523E-03                                                                                                                                                                                                                                                                                                                                                                                                                                                                                              
  7.800000E+02  1.250000E+02 -4.975000E+03  7.452765E-09  3.465400E-10 -1.356649E-10  7.443468E-09  4.261514E-11  1.980800E-12 -7.754513E-13  4.256202E-11  0.000000E+00  0.000000E+00  0.000000E+00  0.000000E+00  0.000000E+00  0.000000E+00  0.000000E+00  0.000000E+00  7.583231E-03  3.441253E-04 -1.347195E-04  7.574221E-03                                                                                                                                                                                                                                                                                                                                                                                                                                                                                              
  8.000000E+02  1.250000E+02 -4.975000E+03  7.635909E-09  3.738329E-10 -1.359102E-10  7.625541E-09  4.365709E-11  2.136806E-12 -7.768537E-13  4.359785E-11  0.000000E+00  0.000000E+00  0.000000E+00  0.000000E+00  0.000000E+00  0.000000E+00  0.000000E+00  0.000000E+00  7.765503E-03  3.712286E-04 -1.349631E-04  7.755450E-03                                                                                                                                                                                                                                                                                                                                                                                                                                                                                              
  9.350000E+02  1.250000E+02 -4.975000E+03  7.776024E-09  4.299050E-10 -1.355980E-10  7.762947E-09  4.445741E-11  2.457314E-12 -7.750699E-13  4.438268E-11  0.000000E+00  0.000000E+00  0.000000E+00  0.000000E+00  0.000000E+00  0.000000E+00  0.000000E+00  0.000000E+00  7.906983E-03  4.269112E-04 -1.346535E-04  7.894301E-03                                                                                                                                                                                                                                                                                                                                                                                                                                                                                              
  1.185000E+03  1.250000E+02 -4.975000E+03  8.117494E-09  4.555625E-10 -1.763939E-10  8.102781E-09  4.640754E-11  2.603977E-12 -1.008259E-12  4.632345E-11  0.000000E+00  0.000000E+00  0.000000E+00  0.000000E+00  0.000000E+00  0.000000E+00  0.000000E+00  0.000000E+00  8.251589E-03  4.523922E-04 -1.751658E-04  8.237316E-03                                                                                                                                                                                                                                                                                                                                                                                                                                                                                              
  1.435000E+03  1.250000E+02 -4.975000E+03  8.563176E-09  2.160996E-10 -1.946084E-10  8.558236E-09  4.895082E-11  1.235220E-12 -1.112376E-12  4.892259E-11  0.000000E+00  0.000000E+00  0.000000E+00  0.000000E+00  0.000000E+00  0.000000E+00  0.000000E+00  0.000000E+00  8.700405E-03  2.145968E-04 -1.932551E-04  8.695611E-03                                                                                                                                                                                                                                                                                                                                                                                                                                                                                              
  1.250000E+02  1.250000E+02 -4.725000E+03  8.437633E-09 -7.052873E-11 -6.585063E-11  8.437082E-09  4.634386E-11 -3.975844E-13 -3.712156E-13  4.634067E-11  0.000000E+00  0.000000E+00  0.000000E+00  0.000000E+00  0.000000E+00  0.000000E+00  0.000000E+00  0.000000E+00  8.154075E-03 -6.632614E-05 -6.193034E-05  8.153570E-03                                                                                                                                                                                                                                                                                                                                                                                                                                                                                              
  3.750000E+02  1.250000E+02 -4.725000E+03  7.980617E-09 -1.178541E-10 -7.549301E-11  7.979390E-09  4.384381E-11 -6.643236E-13 -4.255137E-13  4.383672E-11  0.000000E+00  0.000000E+00  0.000000E+00  0.000000E+00  0.000000E+00  0.000000E+00  0.000000E+00  0.000000E+00  7.712216E-03 -1.107993E-04 -7.096160E-05  7.711094E-03                                                                                                                                                                                                                                                                                                                                                                                                                                                                                              
  6.250000E+02  1.250000E+02 -4.725000E+03  7.346498E-09  8.803417E-11 -9.826768E-11  7.345314E-09  4.037948E-11  4.961144E-13 -5.537464E-13  4.037264E-11  0.000000E+00  0.000000E+00  0.000000E+00  0.000000E+00  0.000000E+00  0.000000E+00  0.000000E+00  0.000000E+00  7.100319E-03  8.272861E-05 -9.225710E-05  7.099237E-03                                                                                                                                                                                                                                                                                                                                                                                                                                                                                              
  7.600000E+02  1.250000E+02 -4.725000E+03  7.258159E-09  2.941062E-10 -1.110743E-10  7.251347E-09  3.991332E-11  1.657512E-12 -6.259454E-13  3.987398E-11  0.000000E+00  0.000000E+00  0.000000E+00  0.000000E+00  0.000000E+00  0.000000E+00  0.000000E+00  0.000000E+00  7.017264E-03  2.763825E-04 -1.043233E-04  7.011043E-03                                                                                                                                                                                                                                                                                                                                                                                                                                                                                              
  7.800000E+02  1.250000E+02 -4.725000E+03  7.231520E-09  3.432058E-10 -1.139722E-10  7.222472E-09  3.977230E-11  1.934287E-12 -6.422822E-13  3.972004E-11  0.000000E+00  0.000000E+00  0.000000E+00  0.000000E+00  0.000000E+00  0.000000E+00  0.000000E+00  0.000000E+00  6.992086E-03  3.225238E-04 -1.070536E-04  6.983823E-03                                                                                                                                                                                                                                                                                                                                                                                                                                                                                              
  8.000000E+02  1.250000E+02 -4.725000E+03  7.929232E-09  3.669869E-10 -1.180816E-10  7.919854E-09  4.354682E-11  2.068460E-12 -6.654875E-13  4.349258E-11  0.000000E+00  0.000000E+00  0.000000E+00  0.000000E+00  0.000000E+00  0.000000E+00  0.000000E+00  0.000000E+00  7.658736E-03  3.449484E-04 -1.109242E-04  7.650160E-03                                                                                                                                                                                                                                                                                                                                                                                                                                                                                              
  9.350000E+02  1.250000E+02 -4.725000E+03  8.075141E-09  3.944067E-10 -1.394698E-10  8.064297E-09  4.435705E-11  2.223238E-12 -7.861062E-13  4.429433E-11  0.000000E+00  0.000000E+00  0.000000E+00  0.000000E+00  0.000000E+00  0.000000E+00  0.000000E+00  0.000000E+00  7.801444E-03  3.708514E-04 -1.310888E-04  7.791522E-03                                                                                                                                                                                                                                                                                                                                                                                                                                                                                              
  1.185000E+03  1.250000E+02 -4.725000E+03  8.614844E-09  4.231227E-10 -1.938334E-10  8.602263E-09  4.731459E-11  2.385459E-12 -1.092654E-12  4.724178E-11  0.000000E+00  0.000000E+00  0.000000E+00  0.000000E+00  0.000000E+00  0.000000E+00  0.000000E+00  0.000000E+00  8.323554E-03  3.980215E-04 -1.822422E-04  8.312034E-03                                                                                                                                                                                                                                                                                                                                                                                                                                                                                              