Title="TOUGHREACT V3.30-OMP flowvector.tec: Liq & Gas Fluxes (kg/s/m^2), Pore Velocities (m/s), & Heat Fluxes (J/s/m2)"                                                                                                                                                                                                                                                                                                                                                                                                                                                                                                                                                                                                                                                                                                         
Variables= "X(m)"     "Y(m)"      "Z(m)"     "FluxLiq"   "FluxLiq_X"   "FluxLiq_Y"   "FluxLiq_Z"   "PorVelLiq"  "PorVelLiqX"  "PorVelLiqY"  "PorVelLiqZ"     "FluxGas"   "FluxGas_X"   "FluxGas_Y"   "FluxGas_Z"   "PorVelGas"  "PorVelGasX"  "PorVelGasY"  "PorVelGasZ"    "HeatFlux"  "HeatFlux_X"  "HeatFlux_Y"  "HeatFlux_Z"                                                                                                                                                                                                                                                                                                                                                                                                                                                                                                
Zone T= "3.00000000E+10 sec" I=     9 J=    10 K=    23 F=Point
  1.250000E+02  1.250000E+02 -5.425000E+03  3.696392E-09  2.589174E-12 -4.633845E-11  3.696101E-09  2.162996E-11  1.529516E-14 -2.737374E-13  2.162822E-11  0.000000E+00  0.000000E+00  0.000000E+00  0.000000E+00  0.000000E+00  0.000000E+00  0.000000E+00  0.000000E+00  4.095642E-03  2.868832E-06 -5.134352E-05  4.095319E-03                                                                                                                                                                                                                                                                                                                                                                                                                                                                                              
  3.750000E+02  1.250000E+02 -5.425000E+03  3.674579E-09  4.788551E-11 -4.969136E-11  3.673931E-09  2.150236E-11  2.828765E-13 -2.935443E-13  2.149850E-11  0.000000E+00  0.000000E+00  0.000000E+00  0.000000E+00  0.000000E+00  0.000000E+00  0.000000E+00  0.000000E+00  4.071475E-03  5.305768E-05 -5.505862E-05  4.070757E-03                                                                                                                                                                                                                                                                                                                                                                                                                                                                                              
  6.250000E+02  1.250000E+02 -5.425000E+03  3.660355E-09  1.720518E-10 -5.839712E-11  3.655843E-09  2.141956E-11  1.016371E-12 -3.449724E-13  2.139266E-11  0.000000E+00  0.000000E+00  0.000000E+00  0.000000E+00  0.000000E+00  0.000000E+00  0.000000E+00  0.000000E+00  4.055717E-03  1.906354E-04 -6.470476E-05  4.050717E-03                                                                                                                                                                                                                                                                                                                                                                                                                                                                                              
  7.600000E+02  1.250000E+02 -5.425000E+03  3.680918E-09  2.585052E-10 -6.526246E-11  3.671249E-09  2.154047E-11  1.527082E-12 -3.855284E-13  2.148281E-11  0.000000E+00  0.000000E+00  0.000000E+00  0.000000E+00  0.000000E+00  0.000000E+00  0.000000E+00  0.000000E+00  4.078500E-03  2.864268E-04 -7.231162E-05  4.067787E-03                                                                                                                                                                                                                                                                                                                                                                                                                                                                                              
  7.800000E+02  1.250000E+02 -5.425000E+03  3.684177E-09  2.682349E-10 -6.631006E-11  3.673801E-09  2.155962E-11  1.584558E-12 -3.917170E-13  2.149774E-11  0.000000E+00  0.000000E+00  0.000000E+00  0.000000E+00  0.000000E+00  0.000000E+00  0.000000E+00  0.000000E+00  4.082111E-03  2.972073E-04 -7.347237E-05  4.070614E-03                                                                                                                                                                                                                                                                                                                                                                                                                                                                                              
  8.000000E+02  1.250000E+02 -5.425000E+03  3.687671E-09  2.774185E-10 -6.738921E-11  3.676603E-09  2.158014E-11  1.638809E-12 -3.980919E-13  2.151414E-11  0.000000E+00  0.000000E+00  0.000000E+00  0.000000E+00  0.000000E+00  0.000000E+00  0.000000E+00  0.000000E+00  4.085981E-03  3.073829E-04 -7.466808E-05  4.073719E-03                                                                                                                                                                                                                                                                                                                                                                                                                                                                                              
  9.350000E+02  1.250000E+02 -5.425000E+03  3.710769E-09  3.108235E-10 -7.488177E-11  3.696970E-09  2.171562E-11  1.836144E-12 -4.423531E-13  2.163333E-11  0.000000E+00  0.000000E+00  0.000000E+00  0.000000E+00  0.000000E+00  0.000000E+00  0.000000E+00  0.000000E+00  4.111574E-03  3.443959E-04 -8.296990E-05  4.096284E-03                                                                                                                                                                                                                                                                                                                                                                                                                                                                                              
  1.185000E+03  1.250000E+02 -5.425000E+03  3.765215E-09  2.938400E-10 -9.313719E-11  3.752576E-09  2.203409E-11  1.735817E-12 -5.501944E-13  2.195872E-11  0.000000E+00  0.000000E+00  0.000000E+00  0.000000E+00  0.000000E+00  0.000000E+00  0.000000E+00  0.000000E+00  4.171897E-03  3.255779E-04 -1.031970E-04  4.157893E-03                                                                                                                                                                                                                                                                                                                                                                                                                                                                                              
  1.435000E+03  1.250000E+02 -5.425000E+03  3.810296E-09  1.239499E-10 -1.058060E-10  3.806809E-09  2.229688E-11  7.322161E-13 -6.250337E-13  2.227609E-11  0.000000E+00  0.000000E+00  0.000000E+00  0.000000E+00  0.000000E+00  0.000000E+00  0.000000E+00  0.000000E+00  4.221845E-03  1.373378E-04 -1.172341E-04  4.217982E-03                                                                                                                                                                                                                                                                                                                                                                                                                                                                                              
  1.250000E+02  1.250000E+02 -5.225000E+03  7.559805E-09 -1.488000E-11 -5.772441E-11  7.559570E-09  4.387129E-11 -8.619670E-14 -3.343854E-13  4.386993E-11  0.000000E+00  0.000000E+00  0.000000E+00  0.000000E+00  0.000000E+00  0.000000E+00  0.000000E+00  0.000000E+00  8.119802E-03 -1.549923E-05 -6.012660E-05  8.119564E-03                                                                                                                                                                                                                                                                                                                                                                                                                                                                                              
  3.750000E+02  1.250000E+02 -5.225000E+03  7.460356E-09  1.452387E-11 -6.195333E-11  7.460085E-09  4.329666E-11  8.413380E-14 -3.588827E-13  4.329509E-11  0.000000E+00  0.000000E+00  0.000000E+00  0.000000E+00  0.000000E+00  0.000000E+00  0.000000E+00  0.000000E+00  8.014745E-03  1.512828E-05 -6.453157E-05  8.014471E-03                                                                                                                                                                                                                                                                                                                                                                                                                                                                                              
  6.250000E+02  1.250000E+02 -5.225000E+03  7.368503E-09  1.740150E-10 -7.536223E-11  7.366063E-09  4.276622E-11  1.008033E-12 -4.365578E-13  4.275211E-11  0.000000E+00  0.000000E+00  0.000000E+00  0.000000E+00  0.000000E+00  0.000000E+00  0.000000E+00  0.000000E+00  7.917805E-03  1.812568E-04 -7.849859E-05  7.915341E-03                                                                                                                                                                                                                                                                                                                                                                                                                                                                                              
  7.600000E+02  1.250000E+02 -5.225000E+03  7.434913E-09  2.965784E-10 -8.387064E-11  7.428522E-09  4.315010E-11  1.718018E-12 -4.858453E-13  4.311314E-11  0.000000E+00  0.000000E+00  0.000000E+00  0.000000E+00  0.000000E+00  0.000000E+00  0.000000E+00  0.000000E+00  7.987875E-03  3.089207E-04 -8.736107E-05  7.981421E-03                                                                                                                                                                                                                                                                                                                                                                                                                                                                                              
  7.800000E+02  1.250000E+02 -5.225000E+03  7.446372E-09  3.109334E-10 -8.518966E-11  7.439390E-09  4.321633E-11  1.801174E-12 -4.934862E-13  4.317595E-11  0.000000E+00  0.000000E+00  0.000000E+00  0.000000E+00  0.000000E+00  0.000000E+00  0.000000E+00  0.000000E+00  7.999962E-03  3.238732E-04 -8.873498E-05  7.992911E-03                                                                                                                                                                                                                                                                                                                                                                                                                                                                                              
  8.000000E+02  1.250000E+02 -5.225000E+03  7.460938E-09  3.243697E-10 -8.657137E-11  7.453380E-09  4.330047E-11  1.879007E-12 -5.014901E-13  4.325677E-11  0.000000E+00  0.000000E+00  0.000000E+00  0.000000E+00  0.000000E+00  0.000000E+00  0.000000E+00  0.000000E+00  8.015301E-03  3.378687E-04 -9.017418E-05  8.007670E-03                                                                                                                                                                                                                                                                                                                                                                                                                                                                                              
  9.350000E+02  1.250000E+02 -5.225000E+03  7.552489E-09  3.722781E-10 -9.626347E-11  7.542694E-09  4.382953E-11  2.156531E-12 -5.576346E-13  4.377289E-11  0.000000E+00  0.000000E+00  0.000000E+00  0.000000E+00  0.000000E+00  0.000000E+00  0.000000E+00  0.000000E+00  8.111945E-03  3.877707E-04 -1.002696E-04  8.102051E-03                                                                                                                                                                                                                                                                                                                                                                                                                                                                                              
  1.185000E+03  1.250000E+02 -5.225000E+03  7.778794E-09  3.678577E-10 -1.242638E-10  7.769098E-09  4.513767E-11  2.130926E-12 -7.198353E-13  4.508160E-11  0.000000E+00  0.000000E+00  0.000000E+00  0.000000E+00  0.000000E+00  0.000000E+00  0.000000E+00  0.000000E+00  8.351368E-03  3.831666E-04 -1.294352E-04  8.341570E-03                                                                                                                                                                                                                                                                                                                                                                                                                                                                                              
  1.435000E+03  1.250000E+02 -5.225000E+03  8.014061E-09  1.609832E-10 -1.428589E-10  8.011170E-09  4.649712E-11  9.325442E-13 -8.275538E-13  4.648040E-11  0.000000E+00  0.000000E+00  0.000000E+00  0.000000E+00  0.000000E+00  0.000000E+00  0.000000E+00  0.000000E+00  8.600245E-03  1.676828E-04 -1.488043E-04  8.597323E-03                                                                                                                                                                                                                                                                                                                                                                                                                                                                                              
  1.250000E+02  1.250000E+02 -4.975000E+03  8.015619E-09 -8.813185E-11 -1.102156E-10  8.014376E-09  4.582098E-11 -5.037308E-13 -6.299535E-13  4.581388E-11  0.000000E+00  0.000000E+00  0.000000E+00  0.000000E+00  0.000000E+00  0.000000E+00  0.000000E+00  0.000000E+00  8.147318E-03 -8.751501E-05 -1.094442E-04  8.146113E-03                                                                                                                                                                                                                                                                                                                                                                                                                                                                                              
  3.750000E+02  1.250000E+02 -4.975000E+03  7.736744E-09 -1.321955E-10 -1.177408E-10  7.734719E-09  4.422965E-11 -7.555829E-13 -6.729648E-13  4.421808E-11  0.000000E+00  0.000000E+00  0.000000E+00  0.000000E+00  0.000000E+00  0.000000E+00  0.000000E+00  0.000000E+00  7.866607E-03 -1.312701E-04 -1.169167E-04  7.864642E-03                                                                                                                                                                                                                                                                                                                                                                                                                                                                                              
  6.250000E+02  1.250000E+02 -4.975000E+03  7.404714E-09  1.809243E-10 -1.611538E-10  7.400749E-09  4.233636E-11  1.034098E-12 -9.210968E-13  4.231370E-11  0.000000E+00  0.000000E+00  0.000000E+00  0.000000E+00  0.000000E+00  0.000000E+00  0.000000E+00  0.000000E+00  7.533155E-03  1.796575E-04 -1.600251E-04  7.529312E-03                                                                                                                                                                                                                                                                                                                                                                                                                                                                                              
  7.600000E+02  1.250000E+02 -4.975000E+03  7.495957E-09  4.736468E-10 -1.722577E-10  7.478994E-09  4.285864E-11  2.707196E-12 -9.845631E-13  4.276172E-11  0.000000E+00  0.000000E+00  0.000000E+00  0.000000E+00  0.000000E+00  0.000000E+00  0.000000E+00  0.000000E+00  7.625736E-03  4.703304E-04 -1.710515E-04  7.609296E-03                                                                                                                                                                                                                                                                                                                                                                                                                                                                                              
  7.800000E+02  1.250000E+02 -4.975000E+03  7.512432E-09  5.214328E-10 -1.744796E-10  7.492283E-09  4.295295E-11  2.980325E-12 -9.972626E-13  4.283782E-11  0.000000E+00  0.000000E+00  0.000000E+00  0.000000E+00  0.000000E+00  0.000000E+00  0.000000E+00  0.000000E+00  7.642425E-03  5.177817E-04 -1.732579E-04  7.622896E-03                                                                                                                                                                                                                                                                                                                                                                                                                                                                                              
  8.000000E+02  1.250000E+02 -4.975000E+03  7.707158E-09  5.562708E-10 -1.774378E-10  7.685009E-09  4.406088E-11  3.179449E-12 -1.014172E-12  4.393431E-11  0.000000E+00  0.000000E+00  0.000000E+00  0.000000E+00  0.000000E+00  0.000000E+00  0.000000E+00  0.000000E+00  7.836308E-03  5.523767E-04 -1.761955E-04  7.814829E-03                                                                                                                                                                                                                                                                                                                                                                                                                                                                                              
  9.350000E+02  1.250000E+02 -4.975000E+03  7.924962E-09  6.465302E-10 -1.962283E-10  7.896108E-09  4.530401E-11  3.695344E-12 -1.121572E-12  4.513911E-11  0.000000E+00  0.000000E+00  0.000000E+00  0.000000E+00  0.000000E+00  0.000000E+00  0.000000E+00  0.000000E+00  8.055794E-03  6.420056E-04 -1.948549E-04  8.027807E-03                                                                                                                                                                                                                                                                                                                                                                                                                                                                                              
  1.185000E+03  1.250000E+02 -4.975000E+03  8.461659E-09  6.957428E-10 -2.773405E-10  8.428445E-09  4.836735E-11  3.976637E-12 -1.585185E-12  4.817753E-11  0.000000E+00  0.000000E+00  0.000000E+00  0.000000E+00  0.000000E+00  0.000000E+00  0.000000E+00  0.000000E+00  8.596989E-03  6.908764E-04 -2.754000E-04  8.564757E-03                                                                                                                                                                                                                                                                                                                                                                                                                                                                                              
  1.435000E+03  1.250000E+02 -4.975000E+03  9.162185E-09  3.327096E-10 -3.214505E-10  9.150497E-09  5.236269E-11  1.901662E-12 -1.837309E-12  5.229588E-11  0.000000E+00  0.000000E+00  0.000000E+00  0.000000E+00  0.000000E+00  0.000000E+00  0.000000E+00  0.000000E+00  9.302306E-03  3.303836E-04 -3.192034E-04  9.290955E-03                                                                                                                                                                                                                                                                                                                                                                                                                                                                                              
  1.250000E+02  1.250000E+02 -4.725000E+03  8.552474E-09 -7.750614E-11 -8.203929E-11  8.551729E-09  4.696268E-11 -4.368949E-13 -4.624511E-13  4.695837E-11  0.000000E+00  0.000000E+00  0.000000E+00  0.000000E+00  0.000000E+00  0.000000E+00  0.000000E+00  0.000000E+00  8.263233E-03 -7.288477E-05 -7.715201E-05  8.262552E-03                                                                                                                                                                                                                                                                                                                                                                                                                                                                                              
  3.750000E+02  1.250000E+02 -4.725000E+03  8.027115E-09 -1.025416E-10 -9.145788E-11  8.025939E-09  4.409329E-11 -5.779947E-13 -5.154728E-13  4.408649E-11  0.000000E+00  0.000000E+00  0.000000E+00  0.000000E+00  0.000000E+00  0.000000E+00  0.000000E+00  0.000000E+00  7.756261E-03 -9.641050E-05 -8.596476E-05  7.755185E-03                                                                                                                                                                                                                                                                                                                                                                                                                                                                                              
  6.250000E+02  1.250000E+02 -4.725000E+03  7.306572E-09  2.423008E-10 -1.240042E-10  7.301501E-09  4.016802E-11  1.365467E-12 -6.987387E-13  4.013872E-11  0.000000E+00  0.000000E+00  0.000000E+00  0.000000E+00  0.000000E+00  0.000000E+00  0.000000E+00  0.000000E+00  7.062537E-03  2.276892E-04 -1.164153E-04  7.057905E-03                                                                                                                                                                                                                                                                                                                                                                                                                                                                                              
  7.600000E+02  1.250000E+02 -4.725000E+03  7.112359E-09  5.849416E-10 -1.824236E-10  7.085917E-09  3.915734E-11  3.296425E-12 -1.027974E-12  3.900479E-11  0.000000E+00  0.000000E+00  0.000000E+00  0.000000E+00  0.000000E+00  0.000000E+00  0.000000E+00  0.000000E+00  6.881139E-03  5.496699E-04 -1.713297E-04  6.857009E-03                                                                                                                                                                                                                                                                                                                                                                                                                                                                                              
  7.800000E+02  1.250000E+02 -4.725000E+03  7.071940E-09  6.912255E-10 -1.938611E-10  7.035407E-09  3.894892E-11  3.895509E-12 -1.092436E-12  3.873822E-11  0.000000E+00  0.000000E+00  0.000000E+00  0.000000E+00  0.000000E+00  0.000000E+00  0.000000E+00  0.000000E+00  6.843129E-03  6.495460E-04 -1.820863E-04  6.809798E-03                                                                                                                                                                                                                                                                                                                                                                                                                                                                                              
  8.000000E+02  1.250000E+02 -4.725000E+03  8.196043E-09  7.435716E-10 -2.085403E-10  8.159579E-09  4.499441E-11  4.190805E-12 -1.175238E-12  4.478340E-11  0.000000E+00  0.000000E+00  0.000000E+00  0.000000E+00  0.000000E+00  0.000000E+00  0.000000E+00  0.000000E+00  7.911029E-03  6.988904E-04 -1.958926E-04  7.877662E-03                                                                                                                                                                                                                                                                                                                                                                                                                                                                                              
  9.350000E+02  1.250000E+02 -4.725000E+03  8.440845E-09  8.324985E-10 -2.976001E-10  8.394417E-09  4.635521E-11  4.692496E-12 -1.677304E-12  4.608657E-11  0.000000E+00  0.000000E+00  0.000000E+00  0.000000E+00  0.000000E+00  0.000000E+00  0.000000E+00  0.000000E+00  8.149400E-03  7.827498E-04 -2.797056E-04  8.106898E-03                                                                                                                                                                                                                                                                                                                                                                                                                                                                                              
  1.185000E+03  1.250000E+02 -4.725000E+03  9.400866E-09  9.818094E-10 -4.818897E-10  9.337029E-09  5.160872E-11  5.534943E-12 -2.716312E-12  5.123911E-11  0.000000E+00  0.000000E+00  0.000000E+00  0.000000E+00  0.000000E+00  0.000000E+00  0.000000E+00  0.000000E+00  9.073778E-03  9.235419E-04 -4.530545E-04  9.015280E-03                                                                                                                                                                                                                                                                                                                                                                                                                                                                                              