Title="TOUGHREACT V3.30-OMP flowvector.tec: Liq & Gas Fluxes (kg/s/m^2), Pore Velocities (m/s), & Heat Fluxes (J/s/m2)"                                                                                                                                                                                                                                                                                                                                                                                                                                                                                                                                                                                                                                                                                                         
Variables= "X(m)"     "Y(m)"      "Z(m)"     "FluxLiq"   "FluxLiq_X"   "FluxLiq_Y"   "FluxLiq_Z"   "PorVelLiq"  "PorVelLiqX"  "PorVelLiqY"  "PorVelLiqZ"     "FluxGas"   "FluxGas_X"   "FluxGas_Y"   "FluxGas_Z"   "PorVelGas"  "PorVelGasX"  "PorVelGasY"  "PorVelGasZ"    "HeatFlux"  "HeatFlux_X"  "HeatFlux_Y"  "HeatFlux_Z"                                                                                                                                                                                                                                                                                                                                                                                                                                                                                                
Zone T= "2.66000000E+10 sec" I=     9 J=    10 K=    23 F=Point
  1.250000E+02  1.250000E+02 -5.425000E+03  2.817730E-08 -3.587860E-10  7.516321E-11 -2.817492E-08  9.943463E-11 -1.275834E-12  2.672721E-13 -9.942609E-11  0.000000E+00  0.000000E+00  0.000000E+00  0.000000E+00  0.000000E+00  0.000000E+00  0.000000E+00  0.000000E+00  3.214123E-02 -4.335970E-04  9.081839E-05 -3.213818E-02                                                                                                                                                                                                                                                                                                                                                                                                                                                                                              
  3.750000E+02  1.250000E+02 -5.425000E+03  2.859051E-08 -4.000752E-10  7.811166E-11 -2.858760E-08  1.008924E-10 -1.422664E-12  2.777707E-13 -1.008820E-10  0.000000E+00  0.000000E+00  0.000000E+00  0.000000E+00  0.000000E+00  0.000000E+00  0.000000E+00  0.000000E+00  3.260491E-02 -4.835034E-04  9.439884E-05 -3.260119E-02                                                                                                                                                                                                                                                                                                                                                                                                                                                                                              
  6.250000E+02  1.250000E+02 -5.425000E+03  2.879308E-08  5.615355E-10  8.238562E-11 -2.878749E-08  1.016098E-10  1.996941E-12  2.929820E-13 -1.015897E-10  0.000000E+00  0.000000E+00  0.000000E+00  0.000000E+00  0.000000E+00  0.000000E+00  0.000000E+00  0.000000E+00  3.283681E-02  6.787298E-04  9.957977E-05 -3.282964E-02                                                                                                                                                                                                                                                                                                                                                                                                                                                                                              
  7.600000E+02  1.250000E+02 -5.425000E+03  2.878280E-08  1.252968E-09  8.505004E-11 -2.875539E-08  1.015742E-10  4.455809E-12  3.024550E-13 -1.014760E-10  0.000000E+00  0.000000E+00  0.000000E+00  0.000000E+00  0.000000E+00  0.000000E+00  0.000000E+00  0.000000E+00  3.282769E-02  1.514442E-03  1.027971E-04 -3.279257E-02                                                                                                                                                                                                                                                                                                                                                                                                                                                                                              
  7.800000E+02  1.250000E+02 -5.425000E+03  2.877261E-08  1.345713E-09  8.544638E-11 -2.874100E-08  1.015386E-10  4.785615E-12  3.038641E-13 -1.014254E-10  0.000000E+00  0.000000E+00  0.000000E+00  0.000000E+00  0.000000E+00  0.000000E+00  0.000000E+00  0.000000E+00  3.281727E-02  1.626513E-03  1.032756E-04 -3.277678E-02                                                                                                                                                                                                                                                                                                                                                                                                                                                                                              
  8.000000E+02  1.250000E+02 -5.425000E+03  2.874539E-08  1.432437E-09  8.584372E-11 -2.870955E-08  1.014435E-10  5.094002E-12  3.052768E-13 -1.013151E-10  0.000000E+00  0.000000E+00  0.000000E+00  0.000000E+00  0.000000E+00  0.000000E+00  0.000000E+00  0.000000E+00  3.278885E-02  1.731325E-03  1.037554E-04 -3.274295E-02                                                                                                                                                                                                                                                                                                                                                                                                                                                                                              
  9.350000E+02  1.250000E+02 -5.425000E+03  2.865408E-08  1.805376E-09  8.852686E-11 -2.859701E-08  1.011232E-10  6.420087E-12  3.148148E-13 -1.009187E-10  0.000000E+00  0.000000E+00  0.000000E+00  0.000000E+00  0.000000E+00  0.000000E+00  0.000000E+00  0.000000E+00  3.269106E-02  2.182015E-03  1.069933E-04 -3.261799E-02                                                                                                                                                                                                                                                                                                                                                                                                                                                                                              
  1.185000E+03  1.250000E+02 -5.425000E+03  2.834560E-08  1.947853E-09  9.325169E-11 -2.827844E-08  1.000335E-10  6.926485E-12  3.315989E-13 -9.979285E-11  0.000000E+00  0.000000E+00  0.000000E+00  0.000000E+00  0.000000E+00  0.000000E+00  0.000000E+00  0.000000E+00  3.234295E-02  2.353946E-03  1.126800E-04 -3.225698E-02                                                                                                                                                                                                                                                                                                                                                                                                                                                                                              
  1.435000E+03  1.250000E+02 -5.425000E+03  2.787152E-08  8.793439E-10  9.630763E-11 -2.785748E-08  9.835790E-11  3.126822E-12  3.424486E-13 -9.830759E-11  0.000000E+00  0.000000E+00  0.000000E+00  0.000000E+00  0.000000E+00  0.000000E+00  0.000000E+00  0.000000E+00  3.180151E-02  1.062549E-03  1.163505E-04 -3.178354E-02                                                                                                                                                                                                                                                                                                                                                                                                                                                                                              
  1.250000E+02  1.250000E+02 -5.225000E+03  1.098334E-07 -6.766810E-10  6.692344E-11 -1.098313E-07  3.829097E-10 -2.370585E-12  2.344572E-13 -3.829023E-10  0.000000E+00  0.000000E+00  0.000000E+00  0.000000E+00  0.000000E+00  0.000000E+00  0.000000E+00  0.000000E+00  1.184558E-01 -7.716844E-04  7.633731E-05 -1.184533E-01                                                                                                                                                                                                                                                                                                                                                                                                                                                                                              
  3.750000E+02  1.250000E+02 -5.225000E+03  1.118372E-07 -9.314002E-10  7.037937E-11 -1.118333E-07  3.896697E-10 -3.262904E-12  2.465494E-13 -3.896560E-10  0.000000E+00  0.000000E+00  0.000000E+00  0.000000E+00  0.000000E+00  0.000000E+00  0.000000E+00  0.000000E+00  1.200074E-01 -1.062170E-03  8.026035E-05 -1.200027E-01                                                                                                                                                                                                                                                                                                                                                                                                                                                                                              
  6.250000E+02  1.250000E+02 -5.225000E+03  1.127681E-07  4.052332E-10  7.510295E-11 -1.127674E-07  3.928095E-10  1.419592E-12  2.630976E-13 -3.928069E-10  0.000000E+00  0.000000E+00  0.000000E+00  0.000000E+00  0.000000E+00  0.000000E+00  0.000000E+00  0.000000E+00  1.207082E-01  4.621334E-04  8.564842E-05 -1.207073E-01                                                                                                                                                                                                                                                                                                                                                                                                                                                                                              
  7.600000E+02  1.250000E+02 -5.225000E+03  1.127021E-07  1.392754E-09  7.798485E-11 -1.126934E-07  3.925947E-10  4.879028E-12  2.731927E-13 -3.925643E-10  0.000000E+00  0.000000E+00  0.000000E+00  0.000000E+00  0.000000E+00  0.000000E+00  0.000000E+00  0.000000E+00  1.206839E-01  1.588303E-03  8.893372E-05 -1.206734E-01                                                                                                                                                                                                                                                                                                                                                                                                                                                                                              
  7.800000E+02  1.250000E+02 -5.225000E+03  1.126296E-07  1.535045E-09  7.841555E-11 -1.126191E-07  3.923523E-10  5.377532E-12  2.747029E-13 -3.923153E-10  0.000000E+00  0.000000E+00  0.000000E+00  0.000000E+00  0.000000E+00  0.000000E+00  0.000000E+00  0.000000E+00  1.206322E-01  1.750579E-03  8.942658E-05 -1.206195E-01                                                                                                                                                                                                                                                                                                                                                                                                                                                                                              
  8.000000E+02  1.250000E+02 -5.225000E+03  1.124227E-07  1.662859E-09  7.885008E-11 -1.124104E-07  3.916581E-10  5.825380E-12  2.762295E-13 -3.916147E-10  0.000000E+00  0.000000E+00  0.000000E+00  0.000000E+00  0.000000E+00  0.000000E+00  0.000000E+00  0.000000E+00  1.204774E-01  1.896417E-03  8.992771E-05 -1.204625E-01                                                                                                                                                                                                                                                                                                                                                                                                                                                                                              
  9.350000E+02  1.250000E+02 -5.225000E+03  1.119392E-07  2.203527E-09  8.176436E-11 -1.119174E-07  3.900378E-10  7.719656E-12  2.864468E-13 -3.899613E-10  0.000000E+00  0.000000E+00  0.000000E+00  0.000000E+00  0.000000E+00  0.000000E+00  0.000000E+00  0.000000E+00  1.201296E-01  2.513259E-03  9.326109E-05 -1.201033E-01                                                                                                                                                                                                                                                                                                                                                                                                                                                                                              
  1.185000E+03  1.250000E+02 -5.225000E+03  1.106225E-07  2.540205E-09  8.701303E-11 -1.105933E-07  3.856083E-10  8.899401E-12  3.048415E-13 -3.855055E-10  0.000000E+00  0.000000E+00  0.000000E+00  0.000000E+00  0.000000E+00  0.000000E+00  0.000000E+00  0.000000E+00  1.191581E-01  2.897478E-03  9.925503E-05 -1.191228E-01                                                                                                                                                                                                                                                                                                                                                                                                                                                                                              
  1.435000E+03  1.250000E+02 -5.225000E+03  1.086316E-07  1.197293E-09  9.062630E-11 -1.086250E-07  3.788834E-10  4.194710E-12  3.175185E-13 -3.788600E-10  0.000000E+00  0.000000E+00  0.000000E+00  0.000000E+00  0.000000E+00  0.000000E+00  0.000000E+00  0.000000E+00  1.175923E-01  1.365742E-03  1.033986E-04 -1.175843E-01                                                                                                                                                                                                                                                                                                                                                                                                                                                                                              
  1.250000E+02  1.250000E+02 -4.975000E+03  2.183410E-07 -4.959061E-10  4.883675E-11 -2.183404E-07  7.443120E-10 -1.705575E-12  1.680865E-13 -7.443100E-10  0.000000E+00  0.000000E+00  0.000000E+00  0.000000E+00  0.000000E+00  0.000000E+00  0.000000E+00  0.000000E+00  2.016656E-01 -5.206626E-04  5.162307E-05 -2.016649E-01                                                                                                                                                                                                                                                                                                                                                                                                                                                                                              
  3.750000E+02  1.250000E+02 -4.975000E+03  2.226755E-07 -6.740708E-10  5.103165E-11 -2.226745E-07  7.574505E-10 -2.317647E-12  1.753783E-13 -7.574469E-10  0.000000E+00  0.000000E+00  0.000000E+00  0.000000E+00  0.000000E+00  0.000000E+00  0.000000E+00  0.000000E+00  2.014526E-01 -7.070966E-04  5.357924E-05 -2.014513E-01                                                                                                                                                                                                                                                                                                                                                                                                                                                                                              
  6.250000E+02  1.250000E+02 -4.975000E+03  2.246608E-07  3.006854E-10  5.435217E-11 -2.246606E-07  7.633855E-10  1.032459E-12  1.866530E-13 -7.633848E-10  0.000000E+00  0.000000E+00  0.000000E+00  0.000000E+00  0.000000E+00  0.000000E+00  0.000000E+00  0.000000E+00  2.010823E-01  3.146412E-04  5.687484E-05 -2.010821E-01                                                                                                                                                                                                                                                                                                                                                                                                                                                                                              
  7.600000E+02  1.250000E+02 -4.975000E+03  2.245110E-07  1.006784E-09  5.670197E-11 -2.245087E-07  7.630029E-10  3.457793E-12  1.947456E-13 -7.629950E-10  0.000000E+00  0.000000E+00  0.000000E+00  0.000000E+00  0.000000E+00  0.000000E+00  0.000000E+00  0.000000E+00  2.012793E-01  1.053808E-03  5.936544E-05 -2.012766E-01                                                                                                                                                                                                                                                                                                                                                                                                                                                                                              
  7.800000E+02  1.250000E+02 -4.975000E+03  2.243616E-07  1.103461E-09  5.706213E-11 -2.243589E-07  7.625548E-10  3.790208E-12  1.959946E-13 -7.625454E-10  0.000000E+00  0.000000E+00  0.000000E+00  0.000000E+00  0.000000E+00  0.000000E+00  0.000000E+00  0.000000E+00  2.012945E-01  1.155462E-03  5.975924E-05 -2.012911E-01                                                                                                                                                                                                                                                                                                                                                                                                                                                                                              
  8.000000E+02  1.250000E+02 -4.975000E+03  2.239280E-07  1.194514E-09  5.744203E-11 -2.239248E-07  7.612306E-10  4.103792E-12  1.973303E-13 -7.612195E-10  0.000000E+00  0.000000E+00  0.000000E+00  0.000000E+00  0.000000E+00  0.000000E+00  0.000000E+00  0.000000E+00  2.012761E-01  1.251436E-03  6.019997E-05 -2.012722E-01                                                                                                                                                                                                                                                                                                                                                                                                                                                                                              
  9.350000E+02  1.250000E+02 -4.975000E+03  2.229669E-07  1.653286E-09  5.992602E-11 -2.229607E-07  7.583590E-10  5.683467E-12  2.059488E-13 -7.583376E-10  0.000000E+00  0.000000E+00  0.000000E+00  0.000000E+00  0.000000E+00  0.000000E+00  0.000000E+00  0.000000E+00  2.013958E-01  1.734705E-03  6.292148E-05 -2.013883E-01                                                                                                                                                                                                                                                                                                                                                                                                                                                                                              
  1.185000E+03  1.250000E+02 -4.975000E+03  2.202240E-07  2.000525E-09  6.480856E-11 -2.202149E-07  7.502233E-10  6.883502E-12  2.229774E-13 -7.501917E-10  0.000000E+00  0.000000E+00  0.000000E+00  0.000000E+00  0.000000E+00  0.000000E+00  0.000000E+00  0.000000E+00  2.020052E-01  2.105645E-03  6.839163E-05 -2.019942E-01                                                                                                                                                                                                                                                                                                                                                                                                                                                                                              
  1.435000E+03  1.250000E+02 -4.975000E+03  2.158701E-07  9.662259E-10  6.871737E-11 -2.158679E-07  7.370414E-10  3.326881E-12  2.367771E-13 -7.370339E-10  0.000000E+00  0.000000E+00  0.000000E+00  0.000000E+00  0.000000E+00  0.000000E+00  0.000000E+00  0.000000E+00  2.022561E-01  1.019646E-03  7.299966E-05 -2.022535E-01                                                                                                                                                                                                                                                                                                                                                                                                                                                                                              
  1.250000E+02  1.250000E+02 -4.725000E+03  3.323316E-07  2.557800E-10  2.457566E-11 -3.323315E-07  1.086819E-09  8.426328E-13  8.115579E-14 -1.086818E-09  0.000000E+00  0.000000E+00  0.000000E+00  0.000000E+00  0.000000E+00  0.000000E+00  0.000000E+00  0.000000E+00  1.945407E-01  2.158566E-04  2.073978E-05 -1.945406E-01                                                                                                                                                                                                                                                                                                                                                                                                                                                                                              
  3.750000E+02  1.250000E+02 -4.725000E+03  3.371538E-07  3.288379E-10  2.369244E-11 -3.371537E-07  1.099709E-09  1.082492E-12  7.788018E-14 -1.099709E-09  0.000000E+00  0.000000E+00  0.000000E+00  0.000000E+00  0.000000E+00  0.000000E+00  0.000000E+00  0.000000E+00  1.933646E-01  2.756165E-04  1.937992E-05 -1.933644E-01                                                                                                                                                                                                                                                                                                                                                                                                                                                                                              
  6.250000E+02  1.250000E+02 -4.725000E+03  3.398398E-07  2.640079E-10  2.452003E-11 -3.398397E-07  1.106997E-09  8.661934E-13  8.041399E-14 -1.106997E-09  0.000000E+00  0.000000E+00  0.000000E+00  0.000000E+00  0.000000E+00  0.000000E+00  0.000000E+00  0.000000E+00  1.928868E-01  2.134154E-04  1.973102E-05 -1.928867E-01                                                                                                                                                                                                                                                                                                                                                                                                                                                                                              
  7.600000E+02  1.250000E+02 -4.725000E+03  3.394989E-07  3.799439E-10  2.543440E-11 -3.394987E-07  1.106112E-09  1.246405E-12  8.344173E-14 -1.106111E-09  0.000000E+00  0.000000E+00  0.000000E+00  0.000000E+00  0.000000E+00  0.000000E+00  0.000000E+00  0.000000E+00  1.929875E-01  3.061134E-04  2.051745E-05 -1.929872E-01                                                                                                                                                                                                                                                                                                                                                                                                                                                                                              
  7.800000E+02  1.250000E+02 -4.725000E+03  3.392947E-07  3.734206E-10  2.558174E-11 -3.392945E-07  1.105547E-09  1.225324E-12  8.393816E-14 -1.105546E-09  0.000000E+00  0.000000E+00  0.000000E+00  0.000000E+00  0.000000E+00  0.000000E+00  0.000000E+00  0.000000E+00  1.929968E-01  3.013958E-04  2.065911E-05 -1.929966E-01                                                                                                                                                                                                                                                                                                                                                                                                                                                                                              
  8.000000E+02  1.250000E+02 -4.725000E+03  3.387345E-07  3.589120E-10  2.576047E-11 -3.387344E-07  1.103969E-09  1.178295E-12  8.455742E-14 -1.103968E-09  0.000000E+00  0.000000E+00  0.000000E+00  0.000000E+00  0.000000E+00  0.000000E+00  0.000000E+00  0.000000E+00  1.929840E-01  2.902353E-04  2.086070E-05 -1.929838E-01                                                                                                                                                                                                                                                                                                                                                                                                                                                                                              
  9.350000E+02  1.250000E+02 -4.725000E+03  3.377460E-07  3.460990E-10  2.667041E-11 -3.377458E-07  1.101407E-09  1.137926E-12  8.763467E-14 -1.101406E-09  0.000000E+00  0.000000E+00  0.000000E+00  0.000000E+00  0.000000E+00  0.000000E+00  0.000000E+00  0.000000E+00  1.933069E-01  2.812807E-04  2.175476E-05 -1.933067E-01                                                                                                                                                                                                                                                                                                                                                                                                                                                                                              
  1.185000E+03  1.250000E+02 -4.725000E+03  3.340155E-07 -8.649862E-11  2.751923E-11 -3.340155E-07  1.091356E-09 -2.880913E-13  9.073120E-14 -1.091356E-09  0.000000E+00  0.000000E+00  0.000000E+00  0.000000E+00  0.000000E+00  0.000000E+00  0.000000E+00  0.000000E+00  1.939845E-01 -8.250209E-05  2.297493E-05 -1.939844E-01                                                                                                                                                                                                                                                                                                                                                                                                                                                                                              