Title="TOUGHREACT V3.30-OMP flowvector.tec: Liq & Gas Fluxes (kg/s/m^2), Pore Velocities (m/s), & Heat Fluxes (J/s/m2)"                                                                                                                                                                                                                                                                                                                                                                                                                                                                                                                                                                                                                                                                                                         
Variables= "X(m)"     "Y(m)"      "Z(m)"     "FluxLiq"   "FluxLiq_X"   "FluxLiq_Y"   "FluxLiq_Z"   "PorVelLiq"  "PorVelLiqX"  "PorVelLiqY"  "PorVelLiqZ"     "FluxGas"   "FluxGas_X"   "FluxGas_Y"   "FluxGas_Z"   "PorVelGas"  "PorVelGasX"  "PorVelGasY"  "PorVelGasZ"    "HeatFlux"  "HeatFlux_X"  "HeatFlux_Y"  "HeatFlux_Z"                                                                                                                                                                                                                                                                                                                                                                                                                                                                                                
Zone T= "7.00000000E+10 sec" I=     9 J=    10 K=    23 F=Point
  1.250000E+02  1.250000E+02 -5.425000E+03  7.053537E-10 -6.903448E-10  1.447314E-10  8.657284E-13  2.482982E-12 -2.430149E-12  5.094737E-13  3.012881E-15  0.000000E+00  0.000000E+00  0.000000E+00  0.000000E+00  0.000000E+00  0.000000E+00  0.000000E+00  0.000000E+00  8.800762E-04 -8.613547E-04  1.805575E-04  1.080027E-06                                                                                                                                                                                                                                                                                                                                                                                                                                                                                              
  3.750000E+02  1.250000E+02 -5.425000E+03  1.140574E-09 -8.551088E-10  1.509090E-10 -7.395438E-10  3.995880E-12 -3.010174E-12  5.312411E-13 -2.573654E-12  0.000000E+00  0.000000E+00  0.000000E+00  0.000000E+00  0.000000E+00  0.000000E+00  0.000000E+00  0.000000E+00  1.374938E-03 -1.066961E-03  1.882917E-04 -8.465205E-04                                                                                                                                                                                                                                                                                                                                                                                                                                                                                              
  6.250000E+02  1.250000E+02 -5.425000E+03  1.434360E-09  8.519344E-10  1.606297E-10 -1.142713E-09  5.012899E-12  2.999151E-12  5.654816E-13 -3.976743E-12  0.000000E+00  0.000000E+00  0.000000E+00  0.000000E+00  0.000000E+00  0.000000E+00  0.000000E+00  0.000000E+00  1.697361E-03  1.063113E-03  2.004468E-04 -1.307917E-03                                                                                                                                                                                                                                                                                                                                                                                                                                                                                              
  7.600000E+02  1.250000E+02 -5.425000E+03  2.385101E-09  2.119314E-09  1.668130E-10 -1.081382E-09  8.376804E-12  7.460804E-12  5.872460E-13 -3.763295E-12  0.000000E+00  0.000000E+00  0.000000E+00  0.000000E+00  0.000000E+00  0.000000E+00  0.000000E+00  0.000000E+00  2.927329E-03  2.644616E-03  2.081573E-04 -1.237713E-03                                                                                                                                                                                                                                                                                                                                                                                                                                                                                              
  7.800000E+02  1.250000E+02 -5.425000E+03  2.526917E-09  2.288134E-09  1.677340E-10 -1.059066E-09  8.877911E-12  8.055102E-12  5.904877E-13 -3.685642E-12  0.000000E+00  0.000000E+00  0.000000E+00  0.000000E+00  0.000000E+00  0.000000E+00  0.000000E+00  0.000000E+00  3.108959E-03  2.855238E-03  2.093058E-04 -1.212200E-03                                                                                                                                                                                                                                                                                                                                                                                                                                                                                              
  8.000000E+02  1.250000E+02 -5.425000E+03  2.654801E-09  2.447873E-09  1.686595E-10 -1.013627E-09  9.330383E-12  8.617421E-12  5.937457E-13 -3.527545E-12  0.000000E+00  0.000000E+00  0.000000E+00  0.000000E+00  0.000000E+00  0.000000E+00  0.000000E+00  0.000000E+00  3.274276E-03  3.054560E-03  2.104603E-04 -1.160282E-03                                                                                                                                                                                                                                                                                                                                                                                                                                                                                              
  9.350000E+02  1.250000E+02 -5.425000E+03  3.286785E-09  3.175503E-09  1.749107E-10 -8.297841E-10  1.156212E-11  1.117873E-11  6.157473E-13 -2.887793E-12  0.000000E+00  0.000000E+00  0.000000E+00  0.000000E+00  0.000000E+00  0.000000E+00  0.000000E+00  0.000000E+00  4.080567E-03  3.962441E-03  2.182531E-04 -9.499775E-04                                                                                                                                                                                                                                                                                                                                                                                                                                                                                              
  1.185000E+03  1.250000E+02 -5.425000E+03  3.515310E-09  3.501798E-09  1.857093E-10 -2.456074E-10  1.237390E-11  1.232702E-11  6.537338E-13 -8.547608E-13  0.000000E+00  0.000000E+00  0.000000E+00  0.000000E+00  0.000000E+00  0.000000E+00  0.000000E+00  0.000000E+00  4.384362E-03  4.369194E-03  2.316877E-04 -2.812355E-04                                                                                                                                                                                                                                                                                                                                                                                                                                                                                              
  1.435000E+03  1.250000E+02 -5.425000E+03  1.679921E-09  1.588650E-09  1.926713E-10  5.110784E-10  5.907356E-12  5.592234E-12  6.782137E-13  1.778709E-12  0.000000E+00  0.000000E+00  0.000000E+00  0.000000E+00  0.000000E+00  0.000000E+00  0.000000E+00  0.000000E+00  2.095805E-03  1.981972E-03  2.403354E-04  6.375120E-04                                                                                                                                                                                                                                                                                                                                                                                                                                                                                              
  1.250000E+02  1.250000E+02 -5.225000E+03  6.260803E-09 -1.197035E-09  1.289327E-10 -6.143952E-09  2.135610E-11 -4.118900E-12  4.436704E-13 -2.095044E-11  0.000000E+00  0.000000E+00  0.000000E+00  0.000000E+00  0.000000E+00  0.000000E+00  0.000000E+00  0.000000E+00  6.648760E-03 -1.370188E-03  1.476416E-04 -6.504368E-03                                                                                                                                                                                                                                                                                                                                                                                                                                                                                              
  3.750000E+02  1.250000E+02 -5.225000E+03  9.699230E-09 -1.703593E-09  1.358621E-10 -9.547480E-09  3.310867E-11 -5.861819E-12  4.674669E-13 -3.258228E-11  0.000000E+00  0.000000E+00  0.000000E+00  0.000000E+00  0.000000E+00  0.000000E+00  0.000000E+00  0.000000E+00  1.028885E-02 -1.949980E-03  1.555148E-04 -1.010118E-02                                                                                                                                                                                                                                                                                                                                                                                                                                                                                              
  6.250000E+02  1.250000E+02 -5.225000E+03  1.129998E-08  5.819115E-10  1.459950E-10 -1.128404E-08  3.856937E-11  2.002150E-12  5.023219E-13 -3.851410E-11  0.000000E+00  0.000000E+00  0.000000E+00  0.000000E+00  0.000000E+00  0.000000E+00  0.000000E+00  0.000000E+00  1.194337E-02  6.660391E-04  1.671017E-04 -1.192361E-02                                                                                                                                                                                                                                                                                                                                                                                                                                                                                              
  7.600000E+02  1.250000E+02 -5.225000E+03  1.136225E-08  2.301301E-09  1.523211E-10 -1.112572E-08  3.879272E-11  7.918044E-12  5.240883E-13 -3.797242E-11  0.000000E+00  0.000000E+00  0.000000E+00  0.000000E+00  0.000000E+00  0.000000E+00  0.000000E+00  0.000000E+00  1.205055E-02  2.633996E-03  1.743415E-04 -1.175786E-02                                                                                                                                                                                                                                                                                                                                                                                                                                                                                              
  7.800000E+02  1.250000E+02 -5.225000E+03  1.130591E-08  2.544731E-09  1.532664E-10 -1.101473E-08  3.860375E-11  8.755687E-12  5.273442E-13 -3.759400E-11  0.000000E+00  0.000000E+00  0.000000E+00  0.000000E+00  0.000000E+00  0.000000E+00  0.000000E+00  0.000000E+00  1.200279E-02  2.912649E-03  1.754278E-04 -1.164270E-02                                                                                                                                                                                                                                                                                                                                                                                                                                                                                              
  8.000000E+02  1.250000E+02 -5.225000E+03  1.107558E-08  2.766972E-09  1.542204E-10 -1.072327E-08  3.782275E-11  9.520559E-12  5.306372E-13 -3.660106E-11  0.000000E+00  0.000000E+00  0.000000E+00  0.000000E+00  0.000000E+00  0.000000E+00  0.000000E+00  0.000000E+00  1.177632E-02  3.167188E-03  1.765335E-04 -1.134105E-02                                                                                                                                                                                                                                                                                                                                                                                                                                                                                              
  9.350000E+02  1.250000E+02 -5.225000E+03  1.063110E-08  3.751203E-09  1.606304E-10 -9.945997E-09  3.632264E-11  1.290762E-11  5.527143E-13 -3.394734E-11  0.000000E+00  0.000000E+00  0.000000E+00  0.000000E+00  0.000000E+00  0.000000E+00  0.000000E+00  0.000000E+00  1.137178E-02  4.294324E-03  1.838976E-04 -1.052817E-02                                                                                                                                                                                                                                                                                                                                                                                                                                                                                              
  1.185000E+03  1.250000E+02 -5.225000E+03  8.804498E-09  4.379755E-09  1.720488E-10 -7.635924E-09  3.010120E-11  1.507123E-11  5.920359E-13 -2.604975E-11  0.000000E+00  0.000000E+00  0.000000E+00  0.000000E+00  0.000000E+00  0.000000E+00  0.000000E+00  0.000000E+00  9.519505E-03  5.014596E-03  1.970064E-04 -8.089252E-03                                                                                                                                                                                                                                                                                                                                                                                                                                                                                              
  1.435000E+03  1.250000E+02 -5.225000E+03  4.763034E-09  2.063625E-09  1.798142E-10 -4.289011E-09  1.624694E-11  7.101456E-12  6.188183E-13 -1.459964E-11  0.000000E+00  0.000000E+00  0.000000E+00  0.000000E+00  0.000000E+00  0.000000E+00  0.000000E+00  0.000000E+00  5.061675E-03  2.362976E-03  2.059736E-04 -4.471517E-03                                                                                                                                                                                                                                                                                                                                                                                                                                                                                              
  1.250000E+02  1.250000E+02 -4.975000E+03  1.846882E-08 -1.445847E-09  9.483639E-11 -1.841189E-08  6.176302E-11 -4.882926E-12  3.205400E-13 -6.156886E-11  0.000000E+00  0.000000E+00  0.000000E+00  0.000000E+00  0.000000E+00  0.000000E+00  0.000000E+00  0.000000E+00  1.685827E-02 -1.519178E-03  1.004022E-04 -1.678938E-02                                                                                                                                                                                                                                                                                                                                                                                                                                                                                              
  3.750000E+02  1.250000E+02 -4.975000E+03  2.615125E-08 -2.150572E-09  1.007807E-10 -2.606248E-08  8.726496E-11 -7.259946E-12  3.400662E-13 -8.696178E-11  0.000000E+00  0.000000E+00  0.000000E+00  0.000000E+00  0.000000E+00  0.000000E+00  0.000000E+00  0.000000E+00  2.337937E-02 -2.256867E-03  1.058922E-04 -2.326995E-02                                                                                                                                                                                                                                                                                                                                                                                                                                                                                              
  6.250000E+02  1.250000E+02 -4.975000E+03  2.968500E-08  2.105206E-10  1.092372E-10 -2.968405E-08  9.894728E-11  7.089715E-13  3.682997E-13 -9.894405E-11  0.000000E+00  0.000000E+00  0.000000E+00  0.000000E+00  0.000000E+00  0.000000E+00  0.000000E+00  0.000000E+00  2.623007E-02  2.203678E-04  1.143468E-04 -2.622890E-02                                                                                                                                                                                                                                                                                                                                                                                                                                                                                              
  7.600000E+02  1.250000E+02 -4.975000E+03  2.955583E-08  1.960031E-09  1.147850E-10 -2.949054E-08  9.853513E-11  6.609094E-12  3.870531E-13 -9.831247E-11  0.000000E+00  0.000000E+00  0.000000E+00  0.000000E+00  0.000000E+00  0.000000E+00  0.000000E+00  0.000000E+00  2.617571E-02  2.052334E-03  1.202225E-04 -2.609485E-02                                                                                                                                                                                                                                                                                                                                                                                                                                                                                              
  7.800000E+02  1.250000E+02 -4.975000E+03  2.932348E-08  2.213554E-09  1.156317E-10 -2.923958E-08  9.776980E-11  7.464768E-12  3.899346E-13 -9.748364E-11  0.000000E+00  0.000000E+00  0.000000E+00  0.000000E+00  0.000000E+00  0.000000E+00  0.000000E+00  0.000000E+00  2.599631E-02  2.318791E-03  1.211468E-04 -2.589240E-02                                                                                                                                                                                                                                                                                                                                                                                                                                                                                              
  8.000000E+02  1.250000E+02 -4.975000E+03  2.859349E-08  2.441811E-09  1.165202E-10 -2.848880E-08  9.535881E-11  8.236341E-12  3.929979E-13 -9.500164E-11  0.000000E+00  0.000000E+00  0.000000E+00  0.000000E+00  0.000000E+00  0.000000E+00  0.000000E+00  0.000000E+00  2.540916E-02  2.559325E-03  1.221739E-04 -2.527964E-02                                                                                                                                                                                                                                                                                                                                                                                                                                                                                              
  9.350000E+02  1.250000E+02 -4.975000E+03  2.717800E-08  3.519579E-09  1.223052E-10 -2.694887E-08  9.069142E-11  1.187991E-11  4.126950E-13 -8.990901E-11  0.000000E+00  0.000000E+00  0.000000E+00  0.000000E+00  0.000000E+00  0.000000E+00  0.000000E+00  0.000000E+00  2.430401E-02  3.695196E-03  1.285032E-04 -2.402112E-02                                                                                                                                                                                                                                                                                                                                                                                                                                                                                              
  1.185000E+03  1.250000E+02 -4.975000E+03  2.287929E-08  4.476358E-09  1.335767E-10 -2.243672E-08  7.647373E-11  1.512489E-11  4.512801E-13 -7.496176E-11  0.000000E+00  0.000000E+00  0.000000E+00  0.000000E+00  0.000000E+00  0.000000E+00  0.000000E+00  0.000000E+00  2.082525E-02  4.716235E-03  1.411264E-04 -2.028369E-02                                                                                                                                                                                                                                                                                                                                                                                                                                                                                              
  1.435000E+03  1.250000E+02 -4.975000E+03  1.509459E-08  2.229821E-09  1.425989E-10 -1.492831E-08  5.055321E-11  7.539650E-12  4.825546E-13 -4.998548E-11  0.000000E+00  0.000000E+00  0.000000E+00  0.000000E+00  0.000000E+00  0.000000E+00  0.000000E+00  0.000000E+00  1.398388E-02  2.355850E-03  1.517767E-04 -1.378317E-02                                                                                                                                                                                                                                                                                                                                                                                                                                                                                              
  1.250000E+02  1.250000E+02 -4.725000E+03  3.346646E-08  7.557777E-10  4.529443E-11 -3.345790E-08  1.072766E-10  2.443968E-12  1.468183E-13 -1.072487E-10  0.000000E+00  0.000000E+00  0.000000E+00  0.000000E+00  0.000000E+00  0.000000E+00  0.000000E+00  0.000000E+00  1.877995E-02  6.335958E-04  3.797196E-05 -1.876922E-02                                                                                                                                                                                                                                                                                                                                                                                                                                                                                              
  3.750000E+02  1.250000E+02 -4.725000E+03  4.250610E-08  1.232195E-09  4.322771E-11 -4.248822E-08  1.361732E-10  3.979369E-12  1.394820E-13 -1.361150E-10  0.000000E+00  0.000000E+00  0.000000E+00  0.000000E+00  0.000000E+00  0.000000E+00  0.000000E+00  0.000000E+00  2.413421E-02  1.020574E-03  3.511241E-05 -2.411260E-02                                                                                                                                                                                                                                                                                                                                                                                                                                                                                              
  6.250000E+02  1.250000E+02 -4.725000E+03  4.692288E-08  4.852533E-10  4.336097E-11 -4.692035E-08  1.502020E-10  1.563851E-12  1.395916E-13 -1.501938E-10  0.000000E+00  0.000000E+00  0.000000E+00  0.000000E+00  0.000000E+00  0.000000E+00  0.000000E+00  0.000000E+00  2.656758E-02  3.940370E-04  3.464223E-05 -2.656463E-02                                                                                                                                                                                                                                                                                                                                                                                                                                                                                              
  7.600000E+02  1.250000E+02 -4.725000E+03  4.653675E-08 -3.470597E-11  4.446299E-11 -4.653672E-08  1.490055E-10 -1.117809E-13  1.431883E-13 -1.490054E-10  0.000000E+00  0.000000E+00  0.000000E+00  0.000000E+00  0.000000E+00  0.000000E+00  0.000000E+00  0.000000E+00  2.641135E-02 -2.785276E-05  3.561094E-05 -2.641131E-02                                                                                                                                                                                                                                                                                                                                                                                                                                                                                              
  7.800000E+02  1.250000E+02 -4.725000E+03  4.625299E-08 -1.360427E-10  4.465613E-11 -4.625277E-08  1.481034E-10 -4.382181E-13  1.438324E-13 -1.481027E-10  0.000000E+00  0.000000E+00  0.000000E+00  0.000000E+00  0.000000E+00  0.000000E+00  0.000000E+00  0.000000E+00  2.625015E-02 -1.092848E-04  3.580542E-05 -2.624989E-02                                                                                                                                                                                                                                                                                                                                                                                                                                                                                              
  8.000000E+02  1.250000E+02 -4.725000E+03  4.545350E-08 -2.167614E-10  4.491563E-11 -4.545296E-08  1.455487E-10 -6.985601E-13  1.447235E-13 -1.455470E-10  0.000000E+00  0.000000E+00  0.000000E+00  0.000000E+00  0.000000E+00  0.000000E+00  0.000000E+00  0.000000E+00  2.576956E-02 -1.750132E-04  3.611321E-05 -2.576894E-02                                                                                                                                                                                                                                                                                                                                                                                                                                                                                              
  9.350000E+02  1.250000E+02 -4.725000E+03  4.368374E-08 -5.108071E-10  4.625774E-11 -4.368073E-08  1.399317E-10 -1.649325E-12  1.491996E-13 -1.399219E-10  0.000000E+00  0.000000E+00  0.000000E+00  0.000000E+00  0.000000E+00  0.000000E+00  0.000000E+00  0.000000E+00  2.478878E-02 -4.211443E-04  3.746481E-05 -2.478517E-02                                                                                                                                                                                                                                                                                                                                                                                                                                                                                              
  1.185000E+03  1.250000E+02 -4.725000E+03  3.807037E-08 -1.028029E-09  4.869990E-11 -3.805645E-08  1.221062E-10 -3.329525E-12  1.576043E-13 -1.220607E-10  0.000000E+00  0.000000E+00  0.000000E+00  0.000000E+00  0.000000E+00  0.000000E+00  0.000000E+00  0.000000E+00  2.170306E-02 -8.698907E-04  4.037938E-05 -2.168558E-02                                                                                                                                                                                                                                                                                                                                                                                                                                                                                              