Title="TOUGHREACT V3.30-OMP flowvector.tec: Liq & Gas Fluxes (kg/s/m^2), Pore Velocities (m/s), & Heat Fluxes (J/s/m2)"                                                                                                                                                                                                                                                                                                                                                                                                                                                                                                                                                                                                                                                                                                         
Variables= "X(m)"     "Y(m)"      "Z(m)"     "FluxLiq"   "FluxLiq_X"   "FluxLiq_Y"   "FluxLiq_Z"   "PorVelLiq"  "PorVelLiqX"  "PorVelLiqY"  "PorVelLiqZ"     "FluxGas"   "FluxGas_X"   "FluxGas_Y"   "FluxGas_Z"   "PorVelGas"  "PorVelGasX"  "PorVelGasY"  "PorVelGasZ"    "HeatFlux"  "HeatFlux_X"  "HeatFlux_Y"  "HeatFlux_Z"                                                                                                                                                                                                                                                                                                                                                                                                                                                                                                
Zone T= "3.67000000E+10 sec" I=     9 J=    10 K=    23 F=Point
  1.250000E+02  1.250000E+02 -5.425000E+03  7.086869E-09 -5.759170E-10  1.322817E-10 -7.062191E-09  2.480209E-11 -2.032608E-12  4.668571E-13 -2.471425E-11  0.000000E+00  0.000000E+00  0.000000E+00  0.000000E+00  0.000000E+00  0.000000E+00  0.000000E+00  0.000000E+00  8.103380E-03 -7.020243E-04  1.612181E-04 -8.071303E-03                                                                                                                                                                                                                                                                                                                                                                                                                                                                                              
  3.750000E+02  1.250000E+02 -5.425000E+03  7.726291E-09 -6.877786E-10  1.377122E-10 -7.694385E-09  2.703984E-11 -2.427424E-12  4.860462E-13 -2.692628E-11  0.000000E+00  0.000000E+00  0.000000E+00  0.000000E+00  0.000000E+00  0.000000E+00  0.000000E+00  0.000000E+00  8.832765E-03 -8.384009E-04  1.678667E-04 -8.791282E-03                                                                                                                                                                                                                                                                                                                                                                                                                                                                                              
  6.250000E+02  1.250000E+02 -5.425000E+03  8.074427E-09  7.939616E-10  1.462867E-10 -8.033965E-09  2.825919E-11  2.802349E-12  5.163312E-13 -2.811516E-11  0.000000E+00  0.000000E+00  0.000000E+00  0.000000E+00  0.000000E+00  0.000000E+00  0.000000E+00  0.000000E+00  9.231772E-03  9.679622E-04  1.783461E-04 -9.179154E-03                                                                                                                                                                                                                                                                                                                                                                                                                                                                                              
  7.600000E+02  1.250000E+02 -5.425000E+03  8.201070E-09  1.885537E-09  1.517574E-10 -7.979929E-09  2.871300E-11  6.655119E-12  5.356368E-13 -2.792595E-11  0.000000E+00  0.000000E+00  0.000000E+00  0.000000E+00  0.000000E+00  0.000000E+00  0.000000E+00  0.000000E+00  9.404460E-03  2.298725E-03  1.850101E-04 -9.117319E-03                                                                                                                                                                                                                                                                                                                                                                                                                                                                                              
  7.800000E+02  1.250000E+02 -5.425000E+03  8.216665E-09  2.030623E-09  1.525700E-10 -7.960331E-09  2.876969E-11  7.167194E-12  5.385044E-13 -2.785743E-11  0.000000E+00  0.000000E+00  0.000000E+00  0.000000E+00  0.000000E+00  0.000000E+00  0.000000E+00  0.000000E+00  9.427841E-03  2.475563E-03  1.860000E-04 -9.095118E-03                                                                                                                                                                                                                                                                                                                                                                                                                                                                                              
  8.000000E+02  1.250000E+02 -5.425000E+03  8.213515E-09  2.167756E-09  1.533859E-10 -7.920804E-09  2.876099E-11  7.651183E-12  5.413839E-13 -2.771933E-11  0.000000E+00  0.000000E+00  0.000000E+00  0.000000E+00  0.000000E+00  0.000000E+00  0.000000E+00  0.000000E+00  9.430364E-03  2.642733E-03  1.869940E-04 -9.050567E-03                                                                                                                                                                                                                                                                                                                                                                                                                                                                                              
  9.350000E+02  1.250000E+02 -5.425000E+03  8.246753E-09  2.787053E-09  1.589156E-10 -7.759897E-09  2.888863E-11  9.836794E-12  5.608954E-13 -2.715650E-11  0.000000E+00  0.000000E+00  0.000000E+00  0.000000E+00  0.000000E+00  0.000000E+00  0.000000E+00  0.000000E+00  9.498339E-03  3.397627E-03  1.937266E-04 -8.867753E-03                                                                                                                                                                                                                                                                                                                                                                                                                                                                                              
  1.185000E+03  1.250000E+02 -5.425000E+03  7.864320E-09  3.042262E-09  1.684731E-10 -7.250089E-09  2.755697E-11  1.073717E-11  5.945980E-13 -2.537216E-11  0.000000E+00  0.000000E+00  0.000000E+00  0.000000E+00  0.000000E+00  0.000000E+00  0.000000E+00  0.000000E+00  9.080374E-03  3.708340E-03  2.053360E-04 -8.286088E-03                                                                                                                                                                                                                                                                                                                                                                                                                                                                                              
  1.435000E+03  1.250000E+02 -5.425000E+03  6.747231E-09  1.372056E-09  1.745810E-10 -6.603946E-09  2.362110E-11  4.842317E-12  6.161264E-13 -2.311122E-11  0.000000E+00  0.000000E+00  0.000000E+00  0.000000E+00  0.000000E+00  0.000000E+00  0.000000E+00  0.000000E+00  7.735512E-03  1.672269E-03  2.127417E-04 -7.549596E-03                                                                                                                                                                                                                                                                                                                                                                                                                                                                                              
  1.250000E+02  1.250000E+02 -5.225000E+03  3.207955E-08 -1.043598E-09  1.188570E-10 -3.206235E-08  1.107656E-10 -3.622147E-12  4.125482E-13 -1.107056E-10  0.000000E+00  0.000000E+00  0.000000E+00  0.000000E+00  0.000000E+00  0.000000E+00  0.000000E+00  0.000000E+00  3.453438E-02 -1.192372E-03  1.358405E-04 -3.451352E-02                                                                                                                                                                                                                                                                                                                                                                                                                                                                                              
  3.750000E+02  1.250000E+02 -5.225000E+03  3.506358E-08 -1.470085E-09  1.250475E-10 -3.503252E-08  1.209932E-10 -5.102347E-12  4.340020E-13 -1.208847E-10  0.000000E+00  0.000000E+00  0.000000E+00  0.000000E+00  0.000000E+00  0.000000E+00  0.000000E+00  0.000000E+00  3.754174E-02 -1.679651E-03  1.428740E-04 -3.750387E-02                                                                                                                                                                                                                                                                                                                                                                                                                                                                                              
  6.250000E+02  1.250000E+02 -5.225000E+03  3.653824E-08  5.567063E-10  1.341166E-10 -3.653375E-08  1.260452E-10  1.932141E-12  4.654759E-13 -1.260295E-10  0.000000E+00  0.000000E+00  0.000000E+00  0.000000E+00  0.000000E+00  0.000000E+00  0.000000E+00  0.000000E+00  3.901324E-02  6.360611E-04  1.532340E-04 -3.900775E-02                                                                                                                                                                                                                                                                                                                                                                                                                                                                                              
  7.600000E+02  1.250000E+02 -5.225000E+03  3.645163E-08  2.076280E-09  1.397873E-10 -3.639219E-08  1.257529E-10  7.206100E-12  4.851568E-13 -1.255453E-10  0.000000E+00  0.000000E+00  0.000000E+00  0.000000E+00  0.000000E+00  0.000000E+00  0.000000E+00  0.000000E+00  3.894331E-02  2.372227E-03  1.597114E-04 -3.887067E-02                                                                                                                                                                                                                                                                                                                                                                                                                                                                                              
  7.800000E+02  1.250000E+02 -5.225000E+03  3.636641E-08  2.291374E-09  1.406343E-10 -3.629388E-08  1.254629E-10  7.952681E-12  4.880992E-13 -1.252096E-10  0.000000E+00  0.000000E+00  0.000000E+00  0.000000E+00  0.000000E+00  0.000000E+00  0.000000E+00  0.000000E+00  3.886323E-02  2.617995E-03  1.606825E-04 -3.877462E-02                                                                                                                                                                                                                                                                                                                                                                                                                                                                                              
  8.000000E+02  1.250000E+02 -5.225000E+03  3.612129E-08  2.487668E-09  1.414888E-10 -3.603525E-08  1.246275E-10  8.634113E-12  4.910734E-13 -1.243271E-10  0.000000E+00  0.000000E+00  0.000000E+00  0.000000E+00  0.000000E+00  0.000000E+00  0.000000E+00  0.000000E+00  3.862726E-02  2.842397E-03  1.616697E-04 -3.852220E-02                                                                                                                                                                                                                                                                                                                                                                                                                                                                                              
  9.350000E+02  1.250000E+02 -5.225000E+03  3.550402E-08  3.354128E-09  1.472341E-10 -3.534492E-08  1.225216E-10  1.164175E-11  5.110302E-13 -1.219662E-10  0.000000E+00  0.000000E+00  0.000000E+00  0.000000E+00  0.000000E+00  0.000000E+00  0.000000E+00  0.000000E+00  3.803446E-02  3.832812E-03  1.682543E-04 -3.784047E-02                                                                                                                                                                                                                                                                                                                                                                                                                                                                                              
  1.185000E+03  1.250000E+02 -5.225000E+03  3.353009E-08  3.900865E-09  1.574598E-10 -3.330203E-08  1.157604E-10  1.353992E-11  5.465412E-13 -1.149646E-10  0.000000E+00  0.000000E+00  0.000000E+00  0.000000E+00  0.000000E+00  0.000000E+00  0.000000E+00  0.000000E+00  3.606867E-02  4.458014E-03  1.799599E-04 -3.579165E-02                                                                                                                                                                                                                                                                                                                                                                                                                                                                                              
  1.435000E+03  1.250000E+02 -5.225000E+03  3.042766E-08  1.836118E-09  1.643695E-10 -3.037177E-08  1.051078E-10  6.373359E-12  5.705658E-13 -1.049128E-10  0.000000E+00  0.000000E+00  0.000000E+00  0.000000E+00  0.000000E+00  0.000000E+00  0.000000E+00  0.000000E+00  3.288485E-02  2.098490E-03  1.879063E-04 -3.281729E-02                                                                                                                                                                                                                                                                                                                                                                                                                                                                                              
  1.250000E+02  1.250000E+02 -4.975000E+03  6.828995E-08 -1.248822E-09  8.731913E-11 -6.827847E-08  2.305968E-10 -4.254906E-12  2.977316E-13 -2.305574E-10  0.000000E+00  0.000000E+00  0.000000E+00  0.000000E+00  0.000000E+00  0.000000E+00  0.000000E+00  0.000000E+00  6.283728E-02 -1.311608E-03  9.235589E-05 -6.282352E-02                                                                                                                                                                                                                                                                                                                                                                                                                                                                                              
  3.750000E+02  1.250000E+02 -4.975000E+03  7.506320E-08 -1.845512E-09  9.256312E-11 -7.504045E-08  2.529022E-10 -6.285537E-12  3.151236E-13 -2.528239E-10  0.000000E+00  0.000000E+00  0.000000E+00  0.000000E+00  0.000000E+00  0.000000E+00  0.000000E+00  0.000000E+00  6.761217E-02 -1.936119E-03  9.721684E-05 -6.758437E-02                                                                                                                                                                                                                                                                                                                                                                                                                                                                                              
  6.250000E+02  1.250000E+02 -4.975000E+03  7.823254E-08  2.269625E-10  1.001101E-10 -7.823215E-08  2.632927E-10  7.714600E-13  3.405577E-13 -2.632913E-10  0.000000E+00  0.000000E+00  0.000000E+00  0.000000E+00  0.000000E+00  0.000000E+00  0.000000E+00  0.000000E+00  6.969912E-02  2.375447E-04  1.047778E-04 -6.969864E-02                                                                                                                                                                                                                                                                                                                                                                                                                                                                                              
  7.600000E+02  1.250000E+02 -4.975000E+03  7.806142E-08  1.760074E-09  1.051172E-10 -7.804150E-08  2.627596E-10  5.988112E-12  3.576344E-13 -2.626911E-10  0.000000E+00  0.000000E+00  0.000000E+00  0.000000E+00  0.000000E+00  0.000000E+00  0.000000E+00  0.000000E+00  6.966309E-02  1.842677E-03  1.100788E-04 -6.963863E-02                                                                                                                                                                                                                                                                                                                                                                                                                                                                                              
  7.800000E+02  1.250000E+02 -4.975000E+03  7.784557E-08  1.980937E-09  1.058805E-10 -7.782029E-08  2.620545E-10  6.740226E-12  3.602540E-13 -2.619675E-10  0.000000E+00  0.000000E+00  0.000000E+00  0.000000E+00  0.000000E+00  0.000000E+00  0.000000E+00  0.000000E+00  6.952506E-02  2.074756E-03  1.109102E-04 -6.949401E-02                                                                                                                                                                                                                                                                                                                                                                                                                                                                                              
  8.000000E+02  1.250000E+02 -4.975000E+03  7.719534E-08  2.180994E-09  1.066798E-10 -7.716445E-08  2.599203E-10  7.422471E-12  3.630323E-13 -2.598141E-10  0.000000E+00  0.000000E+00  0.000000E+00  0.000000E+00  0.000000E+00  0.000000E+00  0.000000E+00  0.000000E+00  6.908078E-02  2.285474E-03  1.118297E-04 -6.904288E-02                                                                                                                                                                                                                                                                                                                                                                                                                                                                                              
  9.350000E+02  1.250000E+02 -4.975000E+03  7.584712E-08  3.134092E-09  1.119030E-10 -7.578225E-08  2.555161E-10  1.067306E-11  3.809686E-13 -2.552928E-10  0.000000E+00  0.000000E+00  0.000000E+00  0.000000E+00  0.000000E+00  0.000000E+00  0.000000E+00  0.000000E+00  6.821714E-02  3.289446E-03  1.175324E-04 -6.813768E-02                                                                                                                                                                                                                                                                                                                                                                                                                                                                                              
  1.185000E+03  1.250000E+02 -4.975000E+03  7.182754E-08  3.969668E-09  1.220916E-10 -7.171766E-08  2.423622E-10  1.353160E-11  4.161353E-13 -2.419838E-10  0.000000E+00  0.000000E+00  0.000000E+00  0.000000E+00  0.000000E+00  0.000000E+00  0.000000E+00  0.000000E+00  6.561593E-02  4.180194E-03  1.289040E-04 -6.548252E-02                                                                                                                                                                                                                                                                                                                                                                                                                                                                                              
  1.435000E+03  1.250000E+02 -4.975000E+03  6.506280E-08  1.972052E-09  1.302229E-10 -6.503277E-08  2.200428E-10  6.726806E-12  4.445337E-13 -2.199395E-10  0.000000E+00  0.000000E+00  0.000000E+00  0.000000E+00  0.000000E+00  0.000000E+00  0.000000E+00  0.000000E+00  6.073158E-02  2.082087E-03  1.384407E-04 -6.069572E-02                                                                                                                                                                                                                                                                                                                                                                                                                                                                                              
  1.250000E+02  1.250000E+02 -4.725000E+03  1.078679E-07  4.912937E-10  4.124480E-11 -1.078668E-07  3.494243E-10  1.603206E-12  1.349103E-13 -3.494206E-10  0.000000E+00  0.000000E+00  0.000000E+00  0.000000E+00  0.000000E+00  0.000000E+00  0.000000E+00  0.000000E+00  6.232480E-02  4.129991E-04  3.467185E-05 -6.232342E-02                                                                                                                                                                                                                                                                                                                                                                                                                                                                                              
  3.750000E+02  1.250000E+02 -4.725000E+03  1.160491E-07  7.967039E-10  3.987913E-11 -1.160464E-07  3.751294E-10  2.596486E-12  1.298534E-13 -3.751204E-10  0.000000E+00  0.000000E+00  0.000000E+00  0.000000E+00  0.000000E+00  0.000000E+00  0.000000E+00  0.000000E+00  6.624072E-02  6.618724E-04  3.249680E-05 -6.623741E-02                                                                                                                                                                                                                                                                                                                                                                                                                                                                                              
  6.250000E+02  1.250000E+02 -4.725000E+03  1.200686E-07  3.850205E-10  4.054335E-11 -1.200679E-07  3.876732E-10  1.251958E-12  1.317152E-13 -3.876712E-10  0.000000E+00  0.000000E+00  0.000000E+00  0.000000E+00  0.000000E+00  0.000000E+00  0.000000E+00  0.000000E+00  6.800739E-02  3.126963E-04  3.250329E-05 -6.800666E-02                                                                                                                                                                                                                                                                                                                                                                                                                                                                                              
  7.600000E+02  1.250000E+02 -4.725000E+03  1.197040E-07  1.282530E-10  4.181283E-11 -1.197039E-07  3.865800E-10  4.167718E-13  1.358859E-13 -3.865797E-10  0.000000E+00  0.000000E+00  0.000000E+00  0.000000E+00  0.000000E+00  0.000000E+00  0.000000E+00  0.000000E+00  6.791781E-02  1.029154E-04  3.360350E-05 -6.791773E-02                                                                                                                                                                                                                                                                                                                                                                                                                                                                                              
  7.800000E+02  1.250000E+02 -4.725000E+03  1.194433E-07  6.820107E-11  4.202821E-11 -1.194433E-07  3.857672E-10  2.216773E-13  1.366068E-13 -3.857671E-10  0.000000E+00  0.000000E+00  0.000000E+00  0.000000E+00  0.000000E+00  0.000000E+00  0.000000E+00  0.000000E+00  6.780004E-02  5.482809E-05  3.381376E-05 -6.780001E-02                                                                                                                                                                                                                                                                                                                                                                                                                                                                                              
  8.000000E+02  1.250000E+02 -4.725000E+03  1.187113E-07  2.123227E-11  4.230453E-11 -1.187113E-07  3.834675E-10  6.902955E-14  1.375575E-13 -3.834675E-10  0.000000E+00  0.000000E+00  0.000000E+00  0.000000E+00  0.000000E+00  0.000000E+00  0.000000E+00  0.000000E+00  6.743921E-02  1.708609E-05  3.412931E-05 -6.743920E-02                                                                                                                                                                                                                                                                                                                                                                                                                                                                                              
  9.350000E+02  1.250000E+02 -4.725000E+03  1.171026E-07 -1.279077E-10  4.378549E-11 -1.171025E-07  3.784692E-10 -4.169998E-13  1.425177E-13 -3.784689E-10  0.000000E+00  0.000000E+00  0.000000E+00  0.000000E+00  0.000000E+00  0.000000E+00  0.000000E+00  0.000000E+00  6.674762E-02 -1.064134E-04  3.558000E-05 -6.674752E-02                                                                                                                                                                                                                                                                                                                                                                                                                                                                                              
  1.185000E+03  1.250000E+02 -4.725000E+03  1.119394E-07 -4.963190E-10  4.644680E-11 -1.119383E-07  3.624113E-10 -1.622881E-12  1.516862E-13 -3.624076E-10  0.000000E+00  0.000000E+00  0.000000E+00  0.000000E+00  0.000000E+00  0.000000E+00  0.000000E+00  0.000000E+00  6.453680E-02 -4.226263E-04  3.862652E-05 -6.453540E-02                                                                                                                                                                                                                                                                                                                                                                                                                                                                                              