Title="TOUGHREACT V3.30-OMP flowvector.tec: Liq & Gas Fluxes (kg/s/m^2), Pore Velocities (m/s), & Heat Fluxes (J/s/m2)"                                                                                                                                                                                                                                                                                                                                                                                                                                                                                                                                                                                                                                                                                                         
Variables= "X(m)"     "Y(m)"      "Z(m)"     "FluxLiq"   "FluxLiq_X"   "FluxLiq_Y"   "FluxLiq_Z"   "PorVelLiq"  "PorVelLiqX"  "PorVelLiqY"  "PorVelLiqZ"     "FluxGas"   "FluxGas_X"   "FluxGas_Y"   "FluxGas_Z"   "PorVelGas"  "PorVelGasX"  "PorVelGasY"  "PorVelGasZ"    "HeatFlux"  "HeatFlux_X"  "HeatFlux_Y"  "HeatFlux_Z"                                                                                                                                                                                                                                                                                                                                                                                                                                                                                                
Zone T= "6.00000000E+10 sec" I=     9 J=    10 K=    23 F=Point
  1.250000E+02  1.250000E+02 -5.425000E+03  7.035912E-10 -6.729355E-10  1.445227E-10 -1.459851E-10  2.475877E-12 -2.369068E-12  5.087821E-13 -5.085509E-13  0.000000E+00  0.000000E+00  0.000000E+00  0.000000E+00  0.000000E+00  0.000000E+00  0.000000E+00  0.000000E+00  8.691602E-04 -8.339377E-04  1.790724E-04 -1.670940E-04                                                                                                                                                                                                                                                                                                                                                                                                                                                                                              
  3.750000E+02  1.250000E+02 -5.425000E+03  1.210834E-09 -8.279260E-10  1.506170E-10 -8.706154E-10  4.239648E-12 -2.914735E-12  5.302592E-13 -3.032782E-12  0.000000E+00  0.000000E+00  0.000000E+00  0.000000E+00  0.000000E+00  0.000000E+00  0.000000E+00  0.000000E+00  1.442181E-03 -1.026037E-03  1.866527E-04 -9.961397E-04                                                                                                                                                                                                                                                                                                                                                                                                                                                                                              
  6.250000E+02  1.250000E+02 -5.425000E+03  1.532976E-09  8.505274E-10  1.601869E-10 -1.265290E-09  5.358407E-12  2.994463E-12  5.639730E-13 -4.407681E-12  0.000000E+00  0.000000E+00  0.000000E+00  0.000000E+00  0.000000E+00  0.000000E+00  0.000000E+00  0.000000E+00  1.801761E-03  1.054166E-03  1.985398E-04 -1.447639E-03                                                                                                                                                                                                                                                                                                                                                                                                                                                                                              
  7.600000E+02  1.250000E+02 -5.425000E+03  2.422477E-09  2.095322E-09  1.663370E-10 -1.204305E-09  8.506640E-12  7.376994E-12  5.856221E-13 -4.195227E-12  0.000000E+00  0.000000E+00  0.000000E+00  0.000000E+00  0.000000E+00  0.000000E+00  0.000000E+00  0.000000E+00  2.947064E-03  2.596959E-03  2.061567E-04 -1.377858E-03                                                                                                                                                                                                                                                                                                                                                                                                                                                                                              
  7.800000E+02  1.250000E+02 -5.425000E+03  2.556914E-09  2.260920E-09  1.672510E-10 -1.182404E-09  8.981873E-12  7.960002E-12  5.888396E-13 -4.118942E-12  0.000000E+00  0.000000E+00  0.000000E+00  0.000000E+00  0.000000E+00  0.000000E+00  0.000000E+00  0.000000E+00  3.118528E-03  2.802160E-03  2.072887E-04 -1.352831E-03                                                                                                                                                                                                                                                                                                                                                                                                                                                                                              
  8.000000E+02  1.250000E+02 -5.425000E+03  2.677450E-09  2.417650E-09  1.681709E-10 -1.138167E-09  9.408567E-12  8.511774E-12  5.920780E-13 -3.964881E-12  0.000000E+00  0.000000E+00  0.000000E+00  0.000000E+00  0.000000E+00  0.000000E+00  0.000000E+00  0.000000E+00  3.273818E-03  2.996400E-03  2.084283E-04 -1.302317E-03                                                                                                                                                                                                                                                                                                                                                                                                                                                                                              
  9.350000E+02  1.250000E+02 -5.425000E+03  3.278809E-09  3.131051E-09  1.743849E-10 -9.574467E-10  1.153311E-11  1.102320E-11  6.139502E-13 -3.335374E-12  0.000000E+00  0.000000E+00  0.000000E+00  0.000000E+00  0.000000E+00  0.000000E+00  0.000000E+00  0.000000E+00  4.037993E-03  3.880484E-03  2.161216E-04 -1.095682E-03                                                                                                                                                                                                                                                                                                                                                                                                                                                                                              
  1.185000E+03  1.250000E+02 -5.425000E+03  3.469992E-09  3.444038E-09  1.851334E-10 -3.810169E-10  1.221456E-11  1.212473E-11  6.517618E-13 -1.327317E-12  0.000000E+00  0.000000E+00  0.000000E+00  0.000000E+00  0.000000E+00  0.000000E+00  0.000000E+00  0.000000E+00  4.296320E-03  4.267969E-03  2.294007E-04 -4.360997E-04                                                                                                                                                                                                                                                                                                                                                                                                                                                                                              
  1.435000E+03  1.250000E+02 -5.425000E+03  1.611741E-09  1.559521E-09  1.919348E-10  3.588391E-10  5.671095E-12  5.490161E-12  6.756785E-13  1.250162E-12  0.000000E+00  0.000000E+00  0.000000E+00  0.000000E+00  0.000000E+00  0.000000E+00  0.000000E+00  0.000000E+00  1.997105E-03  1.932419E-03  2.377903E-04  4.445699E-04                                                                                                                                                                                                                                                                                                                                                                                                                                                                                              
  1.250000E+02  1.250000E+02 -5.225000E+03  6.753337E-09 -1.180297E-09  1.290974E-10 -6.648142E-09  2.308907E-11 -4.069105E-12  4.450882E-13 -2.272332E-11  0.000000E+00  0.000000E+00  0.000000E+00  0.000000E+00  0.000000E+00  0.000000E+00  0.000000E+00  0.000000E+00  7.178803E-03 -1.350471E-03  1.477644E-04 -7.049086E-03                                                                                                                                                                                                                                                                                                                                                                                                                                                                                              
  3.750000E+02  1.250000E+02 -5.225000E+03  1.013657E-08 -1.677245E-09  1.359732E-10 -9.995921E-09  3.467209E-11 -5.782249E-12  4.687493E-13 -3.418333E-11  0.000000E+00  0.000000E+00  0.000000E+00  0.000000E+00  0.000000E+00  0.000000E+00  0.000000E+00  0.000000E+00  1.075695E-02 -1.919038E-03  1.555777E-04 -1.058325E-02                                                                                                                                                                                                                                                                                                                                                                                                                                                                                              
  6.250000E+02  1.250000E+02 -5.225000E+03  1.172081E-08  5.840821E-10  1.460391E-10 -1.170534E-08  4.008583E-11  2.013496E-12  5.034423E-13 -4.003207E-11  0.000000E+00  0.000000E+00  0.000000E+00  0.000000E+00  0.000000E+00  0.000000E+00  0.000000E+00  0.000000E+00  1.239488E-02  6.682581E-04  1.670858E-04 -1.237572E-02                                                                                                                                                                                                                                                                                                                                                                                                                                                                                              
  7.600000E+02  1.250000E+02 -5.225000E+03  1.177132E-08  2.284952E-09  1.523302E-10 -1.154642E-08  4.026897E-11  7.876945E-12  5.251299E-13 -3.948757E-11  0.000000E+00  0.000000E+00  0.000000E+00  0.000000E+00  0.000000E+00  0.000000E+00  0.000000E+00  0.000000E+00  1.248749E-02  2.614243E-03  1.742824E-04 -1.220954E-02                                                                                                                                                                                                                                                                                                                                                                                                                                                                                              
  7.800000E+02  1.250000E+02 -5.225000E+03  1.171385E-08  2.525541E-09  1.532703E-10 -1.143733E-08  4.007572E-11  8.706406E-12  5.283740E-13 -3.911499E-11  0.000000E+00  0.000000E+00  0.000000E+00  0.000000E+00  0.000000E+00  0.000000E+00  0.000000E+00  0.000000E+00  1.243802E-02  2.889531E-03  1.753622E-04 -1.209645E-02                                                                                                                                                                                                                                                                                                                                                                                                                                                                                              
  8.000000E+02  1.250000E+02 -5.225000E+03  1.148577E-08  2.745312E-09  1.542188E-10 -1.115179E-08  3.930086E-11  9.464223E-12  5.316540E-13 -3.814058E-11  0.000000E+00  0.000000E+00  0.000000E+00  0.000000E+00  0.000000E+00  0.000000E+00  0.000000E+00  0.000000E+00  1.221340E-02  3.141134E-03  1.764606E-04 -1.180124E-02                                                                                                                                                                                                                                                                                                                                                                                                                                                                                              
  9.350000E+02  1.250000E+02 -5.225000E+03  1.103188E-08  3.718837E-09  1.605926E-10 -1.038493E-08  3.776536E-11  1.282086E-11  5.536476E-13 -3.551818E-11  0.000000E+00  0.000000E+00  0.000000E+00  0.000000E+00  0.000000E+00  0.000000E+00  0.000000E+00  0.000000E+00  1.179596E-02  4.255537E-03  1.837789E-04 -1.100006E-02                                                                                                                                                                                                                                                                                                                                                                                                                                                                                              
  1.185000E+03  1.250000E+02 -5.225000E+03  9.191040E-09  4.338557E-09  1.719426E-10 -8.100777E-09  3.148323E-11  1.495810E-11  5.928058E-13 -2.769653E-11  0.000000E+00  0.000000E+00  0.000000E+00  0.000000E+00  0.000000E+00  0.000000E+00  0.000000E+00  0.000000E+00  9.924403E-03  4.965340E-03  1.967999E-04 -8.590718E-03                                                                                                                                                                                                                                                                                                                                                                                                                                                                                              
  1.435000E+03  1.250000E+02 -5.225000E+03  5.227994E-09  2.043413E-09  1.796372E-10 -4.808754E-09  1.787477E-11  7.045368E-12  6.193905E-13 -1.641604E-11  0.000000E+00  0.000000E+00  0.000000E+00  0.000000E+00  0.000000E+00  0.000000E+00  0.000000E+00  0.000000E+00  5.572609E-03  2.338825E-03  2.056755E-04 -5.053867E-03                                                                                                                                                                                                                                                                                                                                                                                                                                                                                              
  1.250000E+02  1.250000E+02 -4.975000E+03  1.937844E-08 -1.444384E-09  9.491015E-11 -1.932431E-08  6.493747E-11 -4.887575E-12  3.214151E-13 -6.475247E-11  0.000000E+00  0.000000E+00  0.000000E+00  0.000000E+00  0.000000E+00  0.000000E+00  0.000000E+00  0.000000E+00  1.770217E-02 -1.517479E-03  1.004545E-04 -1.763672E-02                                                                                                                                                                                                                                                                                                                                                                                                                                                                                              
  3.750000E+02  1.250000E+02 -4.975000E+03  2.697760E-08 -2.149215E-09  1.008405E-10 -2.689167E-08  9.020524E-11 -7.269683E-12  3.409427E-13 -8.991118E-11  0.000000E+00  0.000000E+00  0.000000E+00  0.000000E+00  0.000000E+00  0.000000E+00  0.000000E+00  0.000000E+00  2.413372E-02 -2.255259E-03  1.059437E-04 -2.402788E-02                                                                                                                                                                                                                                                                                                                                                                                                                                                                                              
  6.250000E+02  1.250000E+02 -4.975000E+03  3.047664E-08  2.085985E-10  1.092735E-10 -3.047573E-08  1.017925E-10  7.039137E-13  3.691586E-13 -1.017894E-10  0.000000E+00  0.000000E+00  0.000000E+00  0.000000E+00  0.000000E+00  0.000000E+00  0.000000E+00  0.000000E+00  2.694845E-02  2.183497E-04  1.143816E-04 -2.694733E-02                                                                                                                                                                                                                                                                                                                                                                                                                                                                                              
  7.600000E+02  1.250000E+02 -4.975000E+03  3.034425E-08  1.956307E-09  1.148074E-10 -3.028090E-08  1.013690E-10  6.609718E-12  3.879020E-13 -1.011525E-10  0.000000E+00  0.000000E+00  0.000000E+00  0.000000E+00  0.000000E+00  0.000000E+00  0.000000E+00  0.000000E+00  2.689132E-02  2.048373E-03  1.202420E-04 -2.681292E-02                                                                                                                                                                                                                                                                                                                                                                                                                                                                                              
  7.800000E+02  1.250000E+02 -4.975000E+03  3.011418E-08  2.209652E-09  1.156518E-10 -3.003278E-08  1.006099E-10  7.466487E-12  3.907810E-13 -1.003317E-10  0.000000E+00  0.000000E+00  0.000000E+00  0.000000E+00  0.000000E+00  0.000000E+00  0.000000E+00  0.000000E+00  2.671417E-02  2.314621E-03  1.211632E-04 -2.661343E-02                                                                                                                                                                                                                                                                                                                                                                                                                                                                                              
  8.000000E+02  1.250000E+02 -4.975000E+03  2.939239E-08  2.437686E-09  1.165373E-10 -2.929090E-08  9.822195E-11  8.238810E-12  3.938393E-13 -9.787501E-11  0.000000E+00  0.000000E+00  0.000000E+00  0.000000E+00  0.000000E+00  0.000000E+00  0.000000E+00  0.000000E+00  2.613520E-02  2.554883E-03  1.221853E-04 -2.600973E-02                                                                                                                                                                                                                                                                                                                                                                                                                                                                                              
  9.350000E+02  1.250000E+02 -4.975000E+03  2.798669E-08  3.513090E-09  1.223071E-10 -2.776505E-08  9.357888E-11  1.188150E-11  4.135214E-13 -9.282061E-11  0.000000E+00  0.000000E+00  0.000000E+00  0.000000E+00  0.000000E+00  0.000000E+00  0.000000E+00  0.000000E+00  2.504016E-02  3.688106E-03  1.284940E-04 -2.476673E-02                                                                                                                                                                                                                                                                                                                                                                                                                                                                                              
  1.185000E+03  1.250000E+02 -4.975000E+03  2.371599E-08  4.467387E-09  1.335452E-10 -2.329105E-08  7.942974E-11  1.512422E-11  4.520614E-13 -7.797523E-11  0.000000E+00  0.000000E+00  0.000000E+00  0.000000E+00  0.000000E+00  0.000000E+00  0.000000E+00  0.000000E+00  2.159270E-02  4.706155E-03  1.410679E-04 -2.107314E-02                                                                                                                                                                                                                                                                                                                                                                                                                                                                                              
  1.435000E+03  1.250000E+02 -4.975000E+03  1.601966E-08  2.225208E-09  1.425296E-10 -1.586372E-08  5.376137E-11  7.538740E-12  4.832546E-13 -5.322799E-11  0.000000E+00  0.000000E+00  0.000000E+00  0.000000E+00  0.000000E+00  0.000000E+00  0.000000E+00  0.000000E+00  1.485069E-02  2.350556E-03  1.516547E-04 -1.466270E-02                                                                                                                                                                                                                                                                                                                                                                                                                                                                                              
  1.250000E+02  1.250000E+02 -4.725000E+03  3.475986E-08  7.385661E-10  4.514343E-11 -3.475198E-08  1.116562E-10  2.393196E-12  1.466270E-13 -1.116305E-10  0.000000E+00  0.000000E+00  0.000000E+00  0.000000E+00  0.000000E+00  0.000000E+00  0.000000E+00  0.000000E+00  1.954651E-02  6.194812E-04  3.786459E-05 -1.953666E-02                                                                                                                                                                                                                                                                                                                                                                                                                                                                                              
  3.750000E+02  1.250000E+02 -4.725000E+03  4.373453E-08  1.204390E-09  4.312473E-11 -4.371792E-08  1.403896E-10  3.897541E-12  1.394354E-13 -1.403354E-10  0.000000E+00  0.000000E+00  0.000000E+00  0.000000E+00  0.000000E+00  0.000000E+00  0.000000E+00  0.000000E+00  2.484551E-02  9.981098E-04  3.505245E-05 -2.482543E-02                                                                                                                                                                                                                                                                                                                                                                                                                                                                                              
  6.250000E+02  1.250000E+02 -4.725000E+03  4.812131E-08  4.781729E-10  4.328686E-11 -4.811891E-08  1.543450E-10  1.544191E-12  1.396401E-13 -1.543372E-10  0.000000E+00  0.000000E+00  0.000000E+00  0.000000E+00  0.000000E+00  0.000000E+00  0.000000E+00  0.000000E+00  2.725573E-02  3.885024E-04  3.460940E-05 -2.725294E-02                                                                                                                                                                                                                                                                                                                                                                                                                                                                                              
  7.600000E+02  1.250000E+02 -4.725000E+03  4.773677E-08 -2.638771E-11  4.439597E-11 -4.773675E-08  1.531518E-10 -8.516874E-14  1.432669E-13 -1.531517E-10  0.000000E+00  0.000000E+00  0.000000E+00  0.000000E+00  0.000000E+00  0.000000E+00  0.000000E+00  0.000000E+00  2.710088E-02 -2.120898E-05  3.558404E-05 -2.710085E-02                                                                                                                                                                                                                                                                                                                                                                                                                                                                                              
  7.800000E+02  1.250000E+02 -4.725000E+03  4.745475E-08 -1.252176E-10  4.459007E-11 -4.745456E-08  1.522538E-10 -4.041796E-13  1.439152E-13 -1.522532E-10  0.000000E+00  0.000000E+00  0.000000E+00  0.000000E+00  0.000000E+00  0.000000E+00  0.000000E+00  0.000000E+00  2.694118E-02 -1.006663E-04  3.577921E-05 -2.694097E-02                                                                                                                                                                                                                                                                                                                                                                                                                                                                                              
  8.000000E+02  1.250000E+02 -4.725000E+03  4.665998E-08 -2.038069E-10  4.485014E-11 -4.665951E-08  1.497103E-10 -6.581640E-13  1.448098E-13 -1.497087E-10  0.000000E+00  0.000000E+00  0.000000E+00  0.000000E+00  0.000000E+00  0.000000E+00  0.000000E+00  0.000000E+00  2.646480E-02 -1.646751E-04  3.608714E-05 -2.646426E-02                                                                                                                                                                                                                                                                                                                                                                                                                                                                                              
  9.350000E+02  1.250000E+02 -4.725000E+03  4.490062E-08 -4.887966E-10  4.619759E-11 -4.489793E-08  1.441178E-10 -1.581507E-12  1.493119E-13 -1.441090E-10  0.000000E+00  0.000000E+00  0.000000E+00  0.000000E+00  0.000000E+00  0.000000E+00  0.000000E+00  0.000000E+00  2.549287E-02 -4.032770E-04  3.744254E-05 -2.548965E-02                                                                                                                                                                                                                                                                                                                                                                                                                                                                                              
  1.185000E+03  1.250000E+02 -4.725000E+03  3.932290E-08 -9.944582E-10  4.865372E-11 -3.931030E-08  1.263786E-10 -3.227410E-12  1.577771E-13 -1.263373E-10  0.000000E+00  0.000000E+00  0.000000E+00  0.000000E+00  0.000000E+00  0.000000E+00  0.000000E+00  0.000000E+00  2.243619E-02 -8.419514E-04  4.036493E-05 -2.242036E-02                                                                                                                                                                                                                                                                                                                                                                                                                                                                                              