Title="TOUGHREACT V3.30-OMP flowvector.tec: Liq & Gas Fluxes (kg/s/m^2), Pore Velocities (m/s), & Heat Fluxes (J/s/m2)"                                                                                                                                                                                                                                                                                                                                                                                                                                                                                                                                                                                                                                                                                                         
Variables= "X(m)"     "Y(m)"      "Z(m)"     "FluxLiq"   "FluxLiq_X"   "FluxLiq_Y"   "FluxLiq_Z"   "PorVelLiq"  "PorVelLiqX"  "PorVelLiqY"  "PorVelLiqZ"     "FluxGas"   "FluxGas_X"   "FluxGas_Y"   "FluxGas_Z"   "PorVelGas"  "PorVelGasX"  "PorVelGasY"  "PorVelGasZ"    "HeatFlux"  "HeatFlux_X"  "HeatFlux_Y"  "HeatFlux_Z"                                                                                                                                                                                                                                                                                                                                                                                                                                                                                                
Zone T= "6.66000000E+10 sec" I=     9 J=    10 K=    23 F=Point
  1.250000E+02  1.250000E+02 -5.425000E+03  7.518064E-10 -6.929970E-10  1.448078E-10  2.529797E-10  2.643309E-12 -2.439578E-12  5.097619E-13  8.807306E-13  0.000000E+00  0.000000E+00  0.000000E+00  0.000000E+00  0.000000E+00  0.000000E+00  0.000000E+00  0.000000E+00  9.358549E-04 -8.626678E-04  1.802351E-04  3.148713E-04                                                                                                                                                                                                                                                                                                                                                                                                                                                                                              
  3.750000E+02  1.250000E+02 -5.425000E+03  9.976905E-10 -8.566910E-10  1.512087E-10 -4.884697E-10  3.502916E-12 -3.015858E-12  5.323163E-13 -1.700489E-12  0.000000E+00  0.000000E+00  0.000000E+00  0.000000E+00  0.000000E+00  0.000000E+00  0.000000E+00  0.000000E+00  1.218736E-03 -1.066467E-03  1.882300E-04 -5.590482E-04                                                                                                                                                                                                                                                                                                                                                                                                                                                                                              
  6.250000E+02  1.250000E+02 -5.425000E+03  1.241777E-09  8.526213E-10  1.609448E-10 -8.883371E-10  4.346850E-12  3.001686E-12  5.666130E-13 -3.092562E-12  0.000000E+00  0.000000E+00  0.000000E+00  0.000000E+00  0.000000E+00  0.000000E+00  0.000000E+00  0.000000E+00  1.483407E-03  1.061517E-03  2.003769E-04 -1.016626E-03                                                                                                                                                                                                                                                                                                                                                                                                                                                                                              
  7.600000E+02  1.250000E+02 -5.425000E+03  2.280165E-09  2.118400E-09  1.671680E-10 -8.267958E-10  8.015667E-12  7.457875E-12  5.885187E-13 -2.878311E-12  0.000000E+00  0.000000E+00  0.000000E+00  0.000000E+00  0.000000E+00  0.000000E+00  0.000000E+00  0.000000E+00  2.809690E-03  2.637379E-03  2.081192E-04 -9.461920E-04                                                                                                                                                                                                                                                                                                                                                                                                                                                                                              
  7.800000E+02  1.250000E+02 -5.425000E+03  2.430162E-09  2.286942E-09  1.680929E-10 -8.045658E-10  8.545029E-12  8.051219E-12  5.917741E-13 -2.800930E-12  0.000000E+00  0.000000E+00  0.000000E+00  0.000000E+00  0.000000E+00  0.000000E+00  0.000000E+00  0.000000E+00  2.999665E-03  2.847169E-03  2.092698E-04 -9.207743E-04                                                                                                                                                                                                                                                                                                                                                                                                                                                                                              
  8.000000E+02  1.250000E+02 -5.425000E+03  2.567193E-09  2.446449E-09  1.690221E-10 -7.594742E-10  9.029063E-12  8.612739E-12  5.950453E-13 -2.643978E-12  0.000000E+00  0.000000E+00  0.000000E+00  0.000000E+00  0.000000E+00  0.000000E+00  0.000000E+00  0.000000E+00  3.174333E-03  3.045741E-03  2.104263E-04 -8.692366E-04                                                                                                                                                                                                                                                                                                                                                                                                                                                                                              
  9.350000E+02  1.250000E+02 -5.425000E+03  3.230388E-09  3.173725E-09  1.753062E-10 -5.763190E-10  1.136839E-11  1.117290E-11  6.171633E-13 -2.006384E-12  0.000000E+00  0.000000E+00  0.000000E+00  0.000000E+00  0.000000E+00  0.000000E+00  0.000000E+00  0.000000E+00  4.011722E-03  3.951085E-03  2.182418E-04 -6.597048E-04                                                                                                                                                                                                                                                                                                                                                                                                                                                                                              
  1.185000E+03  1.250000E+02 -5.425000E+03  3.508499E-09  3.503559E-09  1.860559E-10  4.966954E-12  1.235107E-11  1.233368E-11  6.549784E-13  1.729224E-14  0.000000E+00  0.000000E+00  0.000000E+00  0.000000E+00  0.000000E+00  0.000000E+00  0.000000E+00  0.000000E+00  4.367443E-03  4.361295E-03  2.315836E-04  6.182362E-06                                                                                                                                                                                                                                                                                                                                                                                                                                                                                              
  1.435000E+03  1.250000E+02 -5.425000E+03  1.775336E-09  1.591424E-09  1.930101E-10  7.628455E-10  6.236999E-12  5.602210E-12  6.794321E-13  2.655894E-12  0.000000E+00  0.000000E+00  0.000000E+00  0.000000E+00  0.000000E+00  0.000000E+00  0.000000E+00  0.000000E+00  2.209690E-03  1.980844E-03  2.402013E-04  9.493621E-04                                                                                                                                                                                                                                                                                                                                                                                                                                                                                              
  1.250000E+02  1.250000E+02 -5.225000E+03  5.346582E-09 -1.193325E-09  1.294881E-10 -5.210101E-09  1.823505E-11 -4.108855E-12  4.458762E-13 -1.776050E-11  0.000000E+00  0.000000E+00  0.000000E+00  0.000000E+00  0.000000E+00  0.000000E+00  0.000000E+00  0.000000E+00  5.638240E-03 -1.365747E-03  1.482549E-04 -5.468319E-03                                                                                                                                                                                                                                                                                                                                                                                                                                                                                              
  3.750000E+02  1.250000E+02 -5.225000E+03  8.778231E-09 -1.698478E-09  1.363427E-10 -8.611267E-09  2.997333E-11 -5.848092E-12  4.694319E-13 -2.939354E-11  0.000000E+00  0.000000E+00  0.000000E+00  0.000000E+00  0.000000E+00  0.000000E+00  0.000000E+00  0.000000E+00  9.300257E-03 -1.943851E-03  1.560427E-04 -9.093507E-03                                                                                                                                                                                                                                                                                                                                                                                                                                                                                              
  6.250000E+02  1.250000E+02 -5.225000E+03  1.036056E-08  5.845761E-10  1.464766E-10 -1.034302E-08  3.537421E-11  2.012657E-12  5.043141E-13 -3.531331E-11  0.000000E+00  0.000000E+00  0.000000E+00  0.000000E+00  0.000000E+00  0.000000E+00  0.000000E+00  0.000000E+00  1.093522E-02  6.689972E-04  1.676299E-04 -1.091345E-02                                                                                                                                                                                                                                                                                                                                                                                                                                                                                              
  7.600000E+02  1.250000E+02 -5.225000E+03  1.044209E-08  2.303751E-09  1.528175E-10 -1.018364E-08  3.566476E-11  7.931744E-12  5.261460E-13 -3.476759E-11  0.000000E+00  0.000000E+00  0.000000E+00  0.000000E+00  0.000000E+00  0.000000E+00  0.000000E+00  0.000000E+00  1.106623E-02  2.636438E-03  1.748856E-04 -1.074617E-02                                                                                                                                                                                                                                                                                                                                                                                                                                                                                              
  7.800000E+02  1.250000E+02 -5.225000E+03  1.039119E-08  2.547051E-09  1.537650E-10 -1.007302E-08  3.549456E-11  8.769498E-12  5.294117E-13 -3.439010E-11  0.000000E+00  0.000000E+00  0.000000E+00  0.000000E+00  0.000000E+00  0.000000E+00  0.000000E+00  0.000000E+00  1.102493E-02  2.914904E-03  1.759743E-04 -1.063116E-02                                                                                                                                                                                                                                                                                                                                                                                                                                                                                              
  8.000000E+02  1.250000E+02 -5.225000E+03  1.016856E-08  2.769227E-09  1.547213E-10 -9.783001E-09  3.473954E-11  9.534648E-12  5.327145E-13 -3.340124E-11  0.000000E+00  0.000000E+00  0.000000E+00  0.000000E+00  0.000000E+00  0.000000E+00  0.000000E+00  0.000000E+00  1.080711E-02  3.169330E-03  1.770822E-04 -1.033042E-02                                                                                                                                                                                                                                                                                                                                                                                                                                                                                              
  9.350000E+02  1.250000E+02 -5.225000E+03  9.759164E-09  3.753187E-09  1.611472E-10 -9.007158E-09  3.336000E-11  1.292302E-11  5.548605E-13 -3.075024E-11  0.000000E+00  0.000000E+00  0.000000E+00  0.000000E+00  0.000000E+00  0.000000E+00  0.000000E+00  0.000000E+00  1.044379E-02  4.295990E-03  1.844631E-04 -9.517522E-03                                                                                                                                                                                                                                                                                                                                                                                                                                                                                              
  1.185000E+03  1.250000E+02 -5.225000E+03  8.005891E-09  4.378154E-09  1.726090E-10 -6.700467E-09  2.738843E-11  1.507569E-11  5.943568E-13 -2.285817E-11  0.000000E+00  0.000000E+00  0.000000E+00  0.000000E+00  0.000000E+00  0.000000E+00  0.000000E+00  0.000000E+00  8.674958E-03  5.012036E-03  1.976185E-04 -7.077805E-03                                                                                                                                                                                                                                                                                                                                                                                                                                                                                              
  1.435000E+03  1.250000E+02 -5.225000E+03  3.942131E-09  2.061165E-09  1.803438E-10 -3.355513E-09  1.344814E-11  7.097679E-12  6.210503E-13 -1.140569E-11  0.000000E+00  0.000000E+00  0.000000E+00  0.000000E+00  0.000000E+00  0.000000E+00  0.000000E+00  0.000000E+00  4.171431E-03  2.359809E-03  2.065473E-04 -3.433581E-03                                                                                                                                                                                                                                                                                                                                                                                                                                                                                              
  1.250000E+02  1.250000E+02 -4.975000E+03  1.668738E-08 -1.453274E-09  9.520109E-11 -1.662371E-08  5.583627E-11 -4.911350E-12  3.219901E-13 -5.561891E-11  0.000000E+00  0.000000E+00  0.000000E+00  0.000000E+00  0.000000E+00  0.000000E+00  0.000000E+00  0.000000E+00  1.521833E-02 -1.526925E-03  1.007794E-04 -1.514120E-02                                                                                                                                                                                                                                                                                                                                                                                                                                                                                              
  3.750000E+02  1.250000E+02 -4.975000E+03  2.437154E-08 -2.162602E-09  1.011433E-10 -2.427519E-08  8.137503E-11 -7.305546E-12  3.415242E-13 -8.104571E-11  0.000000E+00  0.000000E+00  0.000000E+00  0.000000E+00  0.000000E+00  0.000000E+00  0.000000E+00  0.000000E+00  2.177641E-02 -2.269426E-03  1.062693E-04 -2.165757E-02                                                                                                                                                                                                                                                                                                                                                                                                                                                                                              
  6.250000E+02  1.250000E+02 -4.975000E+03  2.789859E-08  2.092939E-10  1.096165E-10 -2.789759E-08  9.304915E-11  7.053244E-13  3.698344E-13 -9.304574E-11  0.000000E+00  0.000000E+00  0.000000E+00  0.000000E+00  0.000000E+00  0.000000E+00  0.000000E+00  0.000000E+00  2.463647E-02  2.190816E-04  1.147427E-04 -2.463523E-02                                                                                                                                                                                                                                                                                                                                                                                                                                                                                              
  7.600000E+02  1.250000E+02 -4.975000E+03  2.777348E-08  1.967489E-09  1.151805E-10 -2.770346E-08  9.264954E-11  6.638832E-12  3.886553E-13 -9.241056E-11  0.000000E+00  0.000000E+00  0.000000E+00  0.000000E+00  0.000000E+00  0.000000E+00  0.000000E+00  0.000000E+00  2.458457E-02  2.060121E-03  1.206353E-04 -2.449781E-02                                                                                                                                                                                                                                                                                                                                                                                                                                                                                              
  7.800000E+02  1.250000E+02 -4.975000E+03  2.754259E-08  2.222369E-09  1.160296E-10 -2.745254E-08  9.188822E-11  7.499676E-12  3.915467E-13 -9.158082E-11  0.000000E+00  0.000000E+00  0.000000E+00  0.000000E+00  0.000000E+00  0.000000E+00  0.000000E+00  0.000000E+00  2.440578E-02  2.327995E-03  1.215619E-04 -2.429419E-02                                                                                                                                                                                                                                                                                                                                                                                                                                                                                              
  8.000000E+02  1.250000E+02 -4.975000E+03  2.681433E-08  2.451742E-09  1.169202E-10 -2.670175E-08  8.948030E-11  8.275547E-12  3.946194E-13 -8.909592E-11  0.000000E+00  0.000000E+00  0.000000E+00  0.000000E+00  0.000000E+00  0.000000E+00  0.000000E+00  0.000000E+00  2.381784E-02  2.569692E-03  1.225910E-04 -2.367849E-02                                                                                                                                                                                                                                                                                                                                                                                                                                                                                              
  9.350000E+02  1.250000E+02 -4.975000E+03  2.540891E-08  3.533583E-09  1.227209E-10 -2.516170E-08  8.484089E-11  1.193536E-11  4.143828E-13 -8.399614E-11  0.000000E+00  0.000000E+00  0.000000E+00  0.000000E+00  0.000000E+00  0.000000E+00  0.000000E+00  0.000000E+00  2.271702E-02  3.709801E-03  1.289361E-04 -2.241169E-02                                                                                                                                                                                                                                                                                                                                                                                                                                                                                              
  1.185000E+03  1.250000E+02 -4.975000E+03  2.113233E-08  4.493604E-09  1.340250E-10 -2.064861E-08  7.067930E-11  1.519349E-11  4.531035E-13 -6.902548E-11  0.000000E+00  0.000000E+00  0.000000E+00  0.000000E+00  0.000000E+00  0.000000E+00  0.000000E+00  0.000000E+00  1.923939E-02  4.734185E-03  1.415914E-04 -1.864730E-02                                                                                                                                                                                                                                                                                                                                                                                                                                                                                              
  1.435000E+03  1.250000E+02 -4.975000E+03  1.333127E-08  2.238261E-09  1.430591E-10 -1.314125E-08  4.467104E-11  7.573305E-12  4.844371E-13 -4.402173E-11  0.000000E+00  0.000000E+00  0.000000E+00  0.000000E+00  0.000000E+00  0.000000E+00  0.000000E+00  0.000000E+00  1.234117E-02  2.364621E-03  1.522499E-04 -1.211156E-02                                                                                                                                                                                                                                                                                                                                                                                                                                                                                              
  1.250000E+02  1.250000E+02 -4.725000E+03  3.088056E-08  7.614728E-10  4.540170E-11 -3.087114E-08  9.902994E-11  2.464141E-12  1.472706E-13 -9.899917E-11  0.000000E+00  0.000000E+00  0.000000E+00  0.000000E+00  0.000000E+00  0.000000E+00  0.000000E+00  0.000000E+00  1.726229E-02  6.384831E-04  3.806862E-05 -1.725043E-02                                                                                                                                                                                                                                                                                                                                                                                                                                                                                              
  3.750000E+02  1.250000E+02 -4.725000E+03  3.992517E-08  1.241530E-09  4.331652E-11 -3.990584E-08  1.279856E-10  4.012383E-12  1.398687E-13 -1.279226E-10  0.000000E+00  0.000000E+00  0.000000E+00  0.000000E+00  0.000000E+00  0.000000E+00  0.000000E+00  0.000000E+00  2.265131E-02  1.028509E-03  3.519276E-05 -2.262792E-02                                                                                                                                                                                                                                                                                                                                                                                                                                                                                              
  6.250000E+02  1.250000E+02 -4.725000E+03  4.434393E-08  4.871806E-10  4.343300E-11 -4.434123E-08  1.420420E-10  1.571194E-12  1.399239E-13 -1.420333E-10  0.000000E+00  0.000000E+00  0.000000E+00  0.000000E+00  0.000000E+00  0.000000E+00  0.000000E+00  0.000000E+00  2.510122E-02  3.957179E-04  3.470889E-05 -2.509808E-02                                                                                                                                                                                                                                                                                                                                                                                                                                                                                              
  7.600000E+02  1.250000E+02 -4.725000E+03  4.395737E-08 -3.858577E-11  4.452756E-11 -4.395733E-08  1.408417E-10 -1.243642E-13  1.434992E-13 -1.408416E-10  0.000000E+00  0.000000E+00  0.000000E+00  0.000000E+00  0.000000E+00  0.000000E+00  0.000000E+00  0.000000E+00  2.494253E-02 -3.096662E-05  3.567189E-05 -2.494249E-02                                                                                                                                                                                                                                                                                                                                                                                                                                                                                              
  7.800000E+02  1.250000E+02 -4.725000E+03  4.367338E-08 -1.408086E-10  4.471969E-11 -4.367313E-08  1.399374E-10 -4.538947E-13  1.441405E-13 -1.399366E-10  0.000000E+00  0.000000E+00  0.000000E+00  0.000000E+00  0.000000E+00  0.000000E+00  0.000000E+00  0.000000E+00  2.478012E-02 -1.131407E-04  3.586562E-05 -2.477984E-02                                                                                                                                                                                                                                                                                                                                                                                                                                                                                              
  8.000000E+02  1.250000E+02 -4.725000E+03  4.287299E-08 -2.222645E-10  4.497832E-11 -4.287239E-08  1.373760E-10 -7.168084E-13  1.450294E-13 -1.373741E-10  0.000000E+00  0.000000E+00  0.000000E+00  0.000000E+00  0.000000E+00  0.000000E+00  0.000000E+00  0.000000E+00  2.429616E-02 -1.794995E-04  3.617279E-05 -2.429547E-02                                                                                                                                                                                                                                                                                                                                                                                                                                                                                              
  9.350000E+02  1.250000E+02 -4.725000E+03  4.110179E-08 -5.195562E-10  4.631502E-11 -4.109848E-08  1.317453E-10 -1.678770E-12  1.494914E-13 -1.317345E-10  0.000000E+00  0.000000E+00  0.000000E+00  0.000000E+00  0.000000E+00  0.000000E+00  0.000000E+00  0.000000E+00  2.330756E-02 -4.284345E-04  3.752034E-05 -2.330359E-02                                                                                                                                                                                                                                                                                                                                                                                                                                                                                              
  1.185000E+03  1.250000E+02 -4.725000E+03  3.548651E-08 -1.039924E-09  4.874482E-11 -3.547124E-08  1.138847E-10 -3.370434E-12  1.578623E-13 -1.138347E-10  0.000000E+00  0.000000E+00  0.000000E+00  0.000000E+00  0.000000E+00  0.000000E+00  0.000000E+00  0.000000E+00  2.019903E-02 -8.800651E-04  4.042490E-05 -2.017981E-02                                                                                                                                                                                                                                                                                                                                                                                                                                                                                              