Title="TOUGHREACT V3.30-OMP flowvector.tec: Liq & Gas Fluxes (kg/s/m^2), Pore Velocities (m/s), & Heat Fluxes (J/s/m2)"                                                                                                                                                                                                                                                                                                                                                                                                                                                                                                                                                                                                                                                                                                         
Variables= "X(m)"     "Y(m)"      "Z(m)"     "FluxLiq"   "FluxLiq_X"   "FluxLiq_Y"   "FluxLiq_Z"   "PorVelLiq"  "PorVelLiqX"  "PorVelLiqY"  "PorVelLiqZ"     "FluxGas"   "FluxGas_X"   "FluxGas_Y"   "FluxGas_Z"   "PorVelGas"  "PorVelGasX"  "PorVelGasY"  "PorVelGasZ"    "HeatFlux"  "HeatFlux_X"  "HeatFlux_Y"  "HeatFlux_Z"                                                                                                                                                                                                                                                                                                                                                                                                                                                                                                
Zone T= "1.00000000E+11 sec" I=     9 J=    10 K=    23 F=Point
  1.250000E+02  1.250000E+02 -5.425000E+03  7.544511E-10 -7.402451E-10  1.448201E-10 -1.614629E-11  2.654874E-12 -2.604902E-12  5.096113E-13 -5.602009E-14  0.000000E+00  0.000000E+00  0.000000E+00  0.000000E+00  0.000000E+00  0.000000E+00  0.000000E+00  0.000000E+00  9.604941E-04 -9.424531E-04  1.843594E-04 -1.851447E-05                                                                                                                                                                                                                                                                                                                                                                                                                                                                                              
  3.750000E+02  1.250000E+02 -5.425000E+03  1.240042E-09 -9.340896E-10  1.511744E-10 -8.014528E-10  4.338102E-12 -3.287057E-12  5.319877E-13 -2.780534E-12  0.000000E+00  0.000000E+00  0.000000E+00  0.000000E+00  0.000000E+00  0.000000E+00  0.000000E+00  0.000000E+00  1.514976E-03 -1.189275E-03  1.924697E-04 -9.185482E-04                                                                                                                                                                                                                                                                                                                                                                                                                                                                                              
  6.250000E+02  1.250000E+02 -5.425000E+03  1.503075E-09  8.513950E-10  1.611141E-10 -1.228171E-09  5.239701E-12  2.996178E-12  5.669837E-13 -4.260975E-12  0.000000E+00  0.000000E+00  0.000000E+00  0.000000E+00  0.000000E+00  0.000000E+00  0.000000E+00  0.000000E+00  1.788352E-03  1.084081E-03  2.051467E-04 -1.407440E-03                                                                                                                                                                                                                                                                                                                                                                                                                                                                                              
  7.600000E+02  1.250000E+02 -5.425000E+03  2.478754E-09  2.180919E-09  1.674572E-10 -1.166093E-09  8.695899E-12  7.674929E-12  5.893031E-13 -4.045596E-12  0.000000E+00  0.000000E+00  0.000000E+00  0.000000E+00  0.000000E+00  0.000000E+00  0.000000E+00  0.000000E+00  3.089095E-03  2.776931E-03  2.132185E-04 -1.336300E-03                                                                                                                                                                                                                                                                                                                                                                                                                                                                                              
  7.800000E+02  1.250000E+02 -5.425000E+03  2.626171E-09  2.358622E-09  1.684022E-10 -1.142505E-09  9.217234E-12  8.300281E-12  5.926283E-13 -3.963776E-12  0.000000E+00  0.000000E+00  0.000000E+00  0.000000E+00  0.000000E+00  0.000000E+00  0.000000E+00  0.000000E+00  3.283176E-03  3.003162E-03  2.144212E-04 -1.309307E-03                                                                                                                                                                                                                                                                                                                                                                                                                                                                                              
  8.000000E+02  1.250000E+02 -5.425000E+03  2.758191E-09  2.526591E-09  1.693517E-10 -1.093286E-09  9.684986E-12  8.891371E-12  5.959700E-13 -3.793061E-12  0.000000E+00  0.000000E+00  0.000000E+00  0.000000E+00  0.000000E+00  0.000000E+00  0.000000E+00  0.000000E+00  3.459164E-03  3.217030E-03  2.156303E-04 -1.253012E-03                                                                                                                                                                                                                                                                                                                                                                                                                                                                                              
  9.350000E+02  1.250000E+02 -5.425000E+03  3.417061E-09  3.291667E-09  1.757593E-10 -9.001923E-10  1.201318E-11  1.158359E-11  6.185161E-13 -3.123199E-12  0.000000E+00  0.000000E+00  0.000000E+00  0.000000E+00  0.000000E+00  0.000000E+00  0.000000E+00  0.000000E+00  4.322074E-03  4.191117E-03  2.237835E-04 -1.031881E-03                                                                                                                                                                                                                                                                                                                                                                                                                                                                                              
  1.185000E+03  1.250000E+02 -5.425000E+03  3.663916E-09  3.647475E-09  1.869225E-10 -2.920054E-10  1.289209E-11  1.283538E-11  6.577771E-13 -1.013124E-12  0.000000E+00  0.000000E+00  0.000000E+00  0.000000E+00  0.000000E+00  0.000000E+00  0.000000E+00  0.000000E+00  4.661942E-03  4.643811E-03  2.379636E-04 -3.348063E-04                                                                                                                                                                                                                                                                                                                                                                                                                                                                                              
  1.435000E+03  1.250000E+02 -5.425000E+03  1.745472E-09  1.659457E-09  1.940205E-10  5.052038E-10  6.134919E-12  5.839473E-12  6.827292E-13  1.752618E-12  0.000000E+00  0.000000E+00  0.000000E+00  0.000000E+00  0.000000E+00  0.000000E+00  0.000000E+00  0.000000E+00  2.222060E-03  2.112589E-03  2.469642E-04  6.430623E-04                                                                                                                                                                                                                                                                                                                                                                                                                                                                                              
  1.250000E+02  1.250000E+02 -5.225000E+03  6.459453E-09 -1.240211E-09  1.279770E-10 -6.337983E-09  2.190508E-11 -4.242451E-12  4.378051E-13 -2.148587E-11  0.000000E+00  0.000000E+00  0.000000E+00  0.000000E+00  0.000000E+00  0.000000E+00  0.000000E+00  0.000000E+00  6.866903E-03 -1.421411E-03  1.467474E-04 -6.716578E-03                                                                                                                                                                                                                                                                                                                                                                                                                                                                                              
  3.750000E+02  1.250000E+02 -5.225000E+03  1.005243E-08 -1.771904E-09  1.350540E-10 -9.894109E-09  3.412036E-11 -6.061091E-12  4.619564E-13 -3.357453E-11  0.000000E+00  0.000000E+00  0.000000E+00  0.000000E+00  0.000000E+00  0.000000E+00  0.000000E+00  0.000000E+00  1.067156E-02 -2.030712E-03  1.547859E-04 -1.047542E-02                                                                                                                                                                                                                                                                                                                                                                                                                                                                                              
  6.250000E+02  1.250000E+02 -5.225000E+03  1.171766E-08  5.736819E-10  1.453303E-10 -1.170270E-08  3.977089E-11  1.962203E-12  4.970909E-13 -3.971935E-11  0.000000E+00  0.000000E+00  0.000000E+00  0.000000E+00  0.000000E+00  0.000000E+00  0.000000E+00  0.000000E+00  1.239136E-02  6.574188E-04  1.665433E-04 -1.237279E-02                                                                                                                                                                                                                                                                                                                                                                                                                                                                                              
  7.600000E+02  1.250000E+02 -5.225000E+03  1.178293E-08  2.338827E-09  1.517411E-10 -1.154748E-08  4.000238E-11  7.999789E-12  5.190194E-13 -3.919088E-11  0.000000E+00  0.000000E+00  0.000000E+00  0.000000E+00  0.000000E+00  0.000000E+00  0.000000E+00  0.000000E+00  1.250238E-02  2.680212E-03  1.738898E-04 -1.221048E-02                                                                                                                                                                                                                                                                                                                                                                                                                                                                                              
  7.800000E+02  1.250000E+02 -5.225000E+03  1.172173E-08  2.589460E-09  1.526993E-10 -1.143111E-08  3.979790E-11  8.857155E-12  5.223008E-13 -3.879627E-11  0.000000E+00  0.000000E+00  0.000000E+00  0.000000E+00  0.000000E+00  0.000000E+00  0.000000E+00  0.000000E+00  1.244991E-02  2.967473E-03  1.749929E-04 -1.208982E-02                                                                                                                                                                                                                                                                                                                                                                                                                                                                                              
  8.000000E+02  1.250000E+02 -5.225000E+03  1.147481E-08  2.817916E-09  1.536668E-10 -1.112237E-08  3.896498E-11  9.638814E-12  5.256217E-13 -3.775032E-11  0.000000E+00  0.000000E+00  0.000000E+00  0.000000E+00  0.000000E+00  0.000000E+00  0.000000E+00  0.000000E+00  1.220665E-02  3.229468E-03  1.761169E-04 -1.177038E-02                                                                                                                                                                                                                                                                                                                                                                                                                                                                                              
  9.350000E+02  1.250000E+02 -5.225000E+03  1.100551E-08  3.829171E-09  1.601645E-10 -1.031664E-08  3.738801E-11  1.309852E-11  5.478718E-13 -3.501417E-11  0.000000E+00  0.000000E+00  0.000000E+00  0.000000E+00  0.000000E+00  0.000000E+00  0.000000E+00  0.000000E+00  1.177797E-02  4.389056E-03  1.835948E-04 -1.092808E-02                                                                                                                                                                                                                                                                                                                                                                                                                                                                                              
  1.185000E+03  1.250000E+02 -5.225000E+03  9.118175E-09  4.485038E-09  1.717656E-10 -7.937004E-09  3.099254E-11  1.534310E-11  5.875970E-13 -2.692176E-11  0.000000E+00  0.000000E+00  0.000000E+00  0.000000E+00  0.000000E+00  0.000000E+00  0.000000E+00  0.000000E+00  9.864583E-03  5.141759E-03  1.969423E-04 -8.416266E-03                                                                                                                                                                                                                                                                                                                                                                                                                                                                                              
  1.435000E+03  1.250000E+02 -5.225000E+03  4.931188E-09  2.117775E-09  1.796810E-10 -4.449647E-09  1.671848E-11  7.245183E-12  6.147515E-13 -1.505447E-11  0.000000E+00  0.000000E+00  0.000000E+00  0.000000E+00  0.000000E+00  0.000000E+00  0.000000E+00  0.000000E+00  5.237278E-03  2.428190E-03  2.061144E-04 -4.635784E-03                                                                                                                                                                                                                                                                                                                                                                                                                                                                                              
  1.250000E+02  1.250000E+02 -4.975000E+03  1.910770E-08 -1.434723E-09  9.431862E-11 -1.905353E-08  6.351052E-11 -4.816242E-12  3.168890E-13 -6.332685E-11  0.000000E+00  0.000000E+00  0.000000E+00  0.000000E+00  0.000000E+00  0.000000E+00  0.000000E+00  0.000000E+00  1.742042E-02 -1.507971E-03  9.993173E-05 -1.735474E-02                                                                                                                                                                                                                                                                                                                                                                                                                                                                                              
  3.750000E+02  1.250000E+02 -4.975000E+03  2.699470E-08 -2.130123E-09  1.002676E-10 -2.691034E-08  8.953007E-11 -7.147538E-12  3.362847E-13 -8.924368E-11  0.000000E+00  0.000000E+00  0.000000E+00  0.000000E+00  0.000000E+00  0.000000E+00  0.000000E+00  0.000000E+00  2.410377E-02 -2.235955E-03  1.053866E-04 -2.399961E-02                                                                                                                                                                                                                                                                                                                                                                                                                                                                                              
  6.250000E+02  1.250000E+02 -4.975000E+03  3.062327E-08  2.191040E-10  1.087432E-10 -3.062230E-08  1.014511E-10  7.333605E-13  3.643945E-13 -1.014478E-10  0.000000E+00  0.000000E+00  0.000000E+00  0.000000E+00  0.000000E+00  0.000000E+00  0.000000E+00  0.000000E+00  2.702569E-02  2.293708E-04  1.138387E-04 -2.702448E-02                                                                                                                                                                                                                                                                                                                                                                                                                                                                                              
  7.600000E+02  1.250000E+02 -4.975000E+03  3.049659E-08  1.957498E-09  1.143055E-10 -3.043349E-08  1.010505E-10  6.560255E-12  3.830828E-13 -1.008366E-10  0.000000E+00  0.000000E+00  0.000000E+00  0.000000E+00  0.000000E+00  0.000000E+00  0.000000E+00  0.000000E+00  2.697549E-02  2.049860E-03  1.197315E-04 -2.689723E-02                                                                                                                                                                                                                                                                                                                                                                                                                                                                                              
  7.800000E+02  1.250000E+02 -4.975000E+03  3.025654E-08  2.209032E-09  1.151552E-10 -3.017557E-08  1.002646E-10  7.404075E-12  3.859578E-13 -9.999006E-11  0.000000E+00  0.000000E+00  0.000000E+00  0.000000E+00  0.000000E+00  0.000000E+00  0.000000E+00  0.000000E+00  2.678992E-02  2.314291E-03  1.206609E-04 -2.668950E-02                                                                                                                                                                                                                                                                                                                                                                                                                                                                                              
  8.000000E+02  1.250000E+02 -4.975000E+03  2.950401E-08  2.435851E-09  1.160484E-10 -2.940306E-08  9.779413E-11  8.166208E-12  3.890221E-13 -9.745180E-11  0.000000E+00  0.000000E+00  0.000000E+00  0.000000E+00  0.000000E+00  0.000000E+00  0.000000E+00  0.000000E+00  2.618449E-02  2.553424E-03  1.216985E-04 -2.605941E-02                                                                                                                                                                                                                                                                                                                                                                                                                                                                                              
  9.350000E+02  1.250000E+02 -4.975000E+03  2.805026E-08  3.512070E-09  1.218538E-10 -2.782926E-08  9.303012E-11  1.178277E-11  4.086753E-13 -9.228002E-11  0.000000E+00  0.000000E+00  0.000000E+00  0.000000E+00  0.000000E+00  0.000000E+00  0.000000E+00  0.000000E+00  2.505008E-02  3.688133E-03  1.280621E-04 -2.477676E-02                                                                                                                                                                                                                                                                                                                                                                                                                                                                                              
  1.185000E+03  1.250000E+02 -4.975000E+03  2.365264E-08  4.468719E-09  1.331744E-10 -2.322628E-08  7.857664E-11  1.500841E-11  4.472151E-13 -7.712869E-11  0.000000E+00  0.000000E+00  0.000000E+00  0.000000E+00  0.000000E+00  0.000000E+00  0.000000E+00  0.000000E+00  2.149987E-02  4.710070E-03  1.407774E-04 -2.097713E-02                                                                                                                                                                                                                                                                                                                                                                                                                                                                                              
  1.435000E+03  1.250000E+02 -4.975000E+03  1.567632E-08  2.226464E-09  1.422655E-10 -1.551675E-08  5.218255E-11  7.483377E-12  4.785747E-13 -5.164096E-11  0.000000E+00  0.000000E+00  0.000000E+00  0.000000E+00  0.000000E+00  0.000000E+00  0.000000E+00  0.000000E+00  1.450587E-02  2.353575E-03  1.515682E-04 -1.431286E-02                                                                                                                                                                                                                                                                                                                                                                                                                                                                                              
  1.250000E+02  1.250000E+02 -4.725000E+03  3.486041E-08  7.892150E-10  4.560325E-11 -3.485145E-08  1.110608E-10  2.536127E-12  1.468978E-13 -1.110318E-10  0.000000E+00  0.000000E+00  0.000000E+00  0.000000E+00  0.000000E+00  0.000000E+00  0.000000E+00  0.000000E+00  1.952535E-02  6.605884E-04  3.817081E-05 -1.951414E-02                                                                                                                                                                                                                                                                                                                                                                                                                                                                                              
  3.750000E+02  1.250000E+02 -4.725000E+03  4.405180E-08  1.286251E-09  4.343898E-11 -4.403300E-08  1.402540E-10  4.127907E-12  1.392839E-13 -1.401932E-10  0.000000E+00  0.000000E+00  0.000000E+00  0.000000E+00  0.000000E+00  0.000000E+00  0.000000E+00  0.000000E+00  2.495572E-02  1.063478E-03  3.521096E-05 -2.493303E-02                                                                                                                                                                                                                                                                                                                                                                                                                                                                                              
  6.250000E+02  1.250000E+02 -4.725000E+03  4.853837E-08  5.001650E-10  4.352362E-11 -4.853578E-08  1.544114E-10  1.601790E-12  1.392329E-13 -1.544030E-10  0.000000E+00  0.000000E+00  0.000000E+00  0.000000E+00  0.000000E+00  0.000000E+00  0.000000E+00  0.000000E+00  2.741778E-02  4.053837E-04  3.469127E-05 -2.741476E-02                                                                                                                                                                                                                                                                                                                                                                                                                                                                                              
  7.600000E+02  1.250000E+02 -4.725000E+03  4.814956E-08 -4.856317E-11  4.462178E-11 -4.814952E-08  1.532152E-10 -1.554206E-13  1.427950E-13 -1.532151E-10  0.000000E+00  0.000000E+00  0.000000E+00  0.000000E+00  0.000000E+00  0.000000E+00  0.000000E+00  0.000000E+00  2.726252E-02 -3.885819E-05  3.565596E-05 -2.726246E-02                                                                                                                                                                                                                                                                                                                                                                                                                                                                                              
  7.800000E+02  1.250000E+02 -4.725000E+03  4.786204E-08 -1.546393E-10  4.481493E-11 -4.786176E-08  1.523071E-10 -4.949840E-13  1.434352E-13 -1.523062E-10  0.000000E+00  0.000000E+00  0.000000E+00  0.000000E+00  0.000000E+00  0.000000E+00  0.000000E+00  0.000000E+00  2.709972E-02 -1.239377E-04  3.585063E-05 -2.709941E-02                                                                                                                                                                                                                                                                                                                                                                                                                                                                                              
  8.000000E+02  1.250000E+02 -4.725000E+03  4.705275E-08 -2.394240E-10  4.507578E-11 -4.705212E-08  1.497379E-10 -7.667389E-13  1.443255E-13 -1.497358E-10  0.000000E+00  0.000000E+00  0.000000E+00  0.000000E+00  0.000000E+00  0.000000E+00  0.000000E+00  0.000000E+00  2.661462E-02 -1.928810E-04  3.616035E-05 -2.661390E-02                                                                                                                                                                                                                                                                                                                                                                                                                                                                                              
  9.350000E+02  1.250000E+02 -4.725000E+03  4.526068E-08 -5.505953E-10  4.641914E-11 -4.525730E-08  1.440875E-10 -1.766617E-12  1.487788E-13 -1.440766E-10  0.000000E+00  0.000000E+00  0.000000E+00  0.000000E+00  0.000000E+00  0.000000E+00  0.000000E+00  0.000000E+00  2.562565E-02 -4.530360E-04  3.751423E-05 -2.562162E-02                                                                                                                                                                                                                                                                                                                                                                                                                                                                                              
  1.185000E+03  1.250000E+02 -4.725000E+03  3.956468E-08 -1.090695E-09  4.886358E-11 -3.954961E-08  1.261185E-10 -3.510355E-12  1.571440E-13 -1.260696E-10  0.000000E+00  0.000000E+00  0.000000E+00  0.000000E+00  0.000000E+00  0.000000E+00  0.000000E+00  0.000000E+00  2.250822E-02 -9.214438E-04  4.044139E-05 -2.248932E-02                                                                                                                                                                                                                                                                                                                                                                                                                                                                                              