Title="TOUGHREACT V3.30-OMP flowvector.tec: Liq & Gas Fluxes (kg/s/m^2), Pore Velocities (m/s), & Heat Fluxes (J/s/m2)"                                                                                                                                                                                                                                                                                                                                                                                                                                                                                                                                                                                                                                                                                                         
Variables= "X(m)"     "Y(m)"      "Z(m)"     "FluxLiq"   "FluxLiq_X"   "FluxLiq_Y"   "FluxLiq_Z"   "PorVelLiq"  "PorVelLiqX"  "PorVelLiqY"  "PorVelLiqZ"     "FluxGas"   "FluxGas_X"   "FluxGas_Y"   "FluxGas_Z"   "PorVelGas"  "PorVelGasX"  "PorVelGasY"  "PorVelGasZ"    "HeatFlux"  "HeatFlux_X"  "HeatFlux_Y"  "HeatFlux_Z"                                                                                                                                                                                                                                                                                                                                                                                                                                                                                                
Zone T= "6.70000000E+09 sec" I=     9 J=    10 K=    23 F=Point
  1.250000E+02  1.250000E+02 -5.425000E+03  4.461689E-07  1.075146E-08 -4.116064E-09 -4.460204E-07  1.853141E-09  4.496348E-11 -1.721306E-11 -1.852515E-09  0.000000E+00  0.000000E+00  0.000000E+00  0.000000E+00  0.000000E+00  0.000000E+00  0.000000E+00  0.000000E+00  4.923828E-01  1.237920E-02 -4.739250E-03 -4.922043E-01                                                                                                                                                                                                                                                                                                                                                                                                                                                                                              
  3.750000E+02  1.250000E+02 -5.425000E+03  4.347249E-07  1.314584E-08 -4.305559E-09 -4.345048E-07  1.805798E-09  5.497769E-11 -1.800694E-11 -1.804871E-09  0.000000E+00  0.000000E+00  0.000000E+00  0.000000E+00  0.000000E+00  0.000000E+00  0.000000E+00  0.000000E+00  4.798360E-01  1.513654E-02 -4.958267E-03 -4.795715E-01                                                                                                                                                                                                                                                                                                                                                                                                                                                                                              
  6.250000E+02  1.250000E+02 -5.425000E+03  4.271095E-07 -1.609442E-08 -4.632944E-09 -4.267810E-07  1.774296E-09 -6.731273E-11 -1.937704E-11 -1.772913E-09  0.000000E+00  0.000000E+00  0.000000E+00  0.000000E+00  0.000000E+00  0.000000E+00  0.000000E+00  0.000000E+00  4.715374E-01 -1.853670E-02 -5.336034E-03 -4.711427E-01                                                                                                                                                                                                                                                                                                                                                                                                                                                                                              
  7.600000E+02  1.250000E+02 -5.425000E+03  4.294570E-07 -3.849492E-08 -4.852893E-09 -4.277008E-07  1.784056E-09 -1.609990E-10 -2.029621E-11 -1.776661E-09  0.000000E+00  0.000000E+00  0.000000E+00  0.000000E+00  0.000000E+00  0.000000E+00  0.000000E+00  0.000000E+00  4.742483E-01 -4.433554E-02 -5.589235E-03 -4.721383E-01                                                                                                                                                                                                                                                                                                                                                                                                                                                                                              
  7.800000E+02  1.250000E+02 -5.425000E+03  4.299323E-07 -4.149871E-08 -4.885725E-09 -4.278969E-07  1.786036E-09 -1.735604E-10 -2.043339E-11 -1.777466E-09  0.000000E+00  0.000000E+00  0.000000E+00  0.000000E+00  0.000000E+00  0.000000E+00  0.000000E+00  0.000000E+00  4.748004E-01 -4.779485E-02 -5.627025E-03 -4.723552E-01                                                                                                                                                                                                                                                                                                                                                                                                                                                                                              
  8.000000E+02  1.250000E+02 -5.425000E+03  4.304791E-07 -4.443273E-08 -4.918762E-09 -4.281516E-07  1.788316E-09 -1.858269E-10 -2.057143E-11 -1.778516E-09  0.000000E+00  0.000000E+00  0.000000E+00  0.000000E+00  0.000000E+00  0.000000E+00  0.000000E+00  0.000000E+00  4.754392E-01 -5.117283E-02 -5.665046E-03 -4.726433E-01                                                                                                                                                                                                                                                                                                                                                                                                                                                                                              
  9.350000E+02  1.250000E+02 -5.425000E+03  4.344647E-07 -6.002198E-08 -5.142890E-09 -4.302679E-07  1.804885E-09 -2.509986E-10 -2.150772E-11 -1.787218E-09  0.000000E+00  0.000000E+00  0.000000E+00  0.000000E+00  0.000000E+00  0.000000E+00  0.000000E+00  0.000000E+00  4.800133E-01 -6.911838E-02 -5.922941E-03 -4.749740E-01                                                                                                                                                                                                                                                                                                                                                                                                                                                                                              
  1.185000E+03  1.250000E+02 -5.425000E+03  4.471569E-07 -6.787893E-08 -5.538659E-09 -4.419401E-07  1.857318E-09 -2.838221E-10 -2.315912E-11 -1.835358E-09  0.000000E+00  0.000000E+00  0.000000E+00  0.000000E+00  0.000000E+00  0.000000E+00  0.000000E+00  0.000000E+00  4.940275E-01 -7.815586E-02 -6.377675E-03 -4.877644E-01                                                                                                                                                                                                                                                                                                                                                                                                                                                                                              
  1.435000E+03  1.250000E+02 -5.425000E+03  4.572956E-07 -3.079711E-08 -5.793662E-09 -4.562206E-07  1.898879E-09 -1.287621E-10 -2.422209E-11 -1.894353E-09  0.000000E+00  0.000000E+00  0.000000E+00  0.000000E+00  0.000000E+00  0.000000E+00  0.000000E+00  0.000000E+00  5.047460E-01 -3.545696E-02 -6.670323E-03 -5.034549E-01                                                                                                                                                                                                                                                                                                                                                                                                                                                                                              
  1.250000E+02  1.250000E+02 -5.225000E+03  1.656131E-06  1.971690E-08 -3.749565E-09 -1.656009E-06  6.799000E-09  8.145406E-11 -1.548957E-11 -6.798494E-09  0.000000E+00  0.000000E+00  0.000000E+00  0.000000E+00  0.000000E+00  0.000000E+00  0.000000E+00  0.000000E+00  1.754585E+00  2.175852E-02 -4.137852E-03 -1.754446E+00                                                                                                                                                                                                                                                                                                                                                                                                                                                                                              
  3.750000E+02  1.250000E+02 -5.225000E+03  1.602671E-06  2.820657E-08 -3.961194E-09 -1.602418E-06  6.578605E-09  1.165301E-10 -1.636547E-11 -6.577553E-09  0.000000E+00  0.000000E+00  0.000000E+00  0.000000E+00  0.000000E+00  0.000000E+00  0.000000E+00  0.000000E+00  1.693263E+00  3.112873E-02 -4.372084E-03 -1.692971E+00                                                                                                                                                                                                                                                                                                                                                                                                                                                                                              
  6.250000E+02  1.250000E+02 -5.225000E+03  1.570192E-06 -1.096529E-08 -4.303855E-09 -1.570148E-06  6.444985E-09 -4.530553E-11 -1.778255E-11 -6.444801E-09  0.000000E+00  0.000000E+00  0.000000E+00  0.000000E+00  0.000000E+00  0.000000E+00  0.000000E+00  0.000000E+00  1.656762E+00 -1.210608E-02 -4.751257E-03 -1.656711E+00                                                                                                                                                                                                                                                                                                                                                                                                                                                                                              
  7.600000E+02  1.250000E+02 -5.225000E+03  1.573913E-06 -4.100049E-08 -4.528873E-09 -1.573373E-06  6.460165E-09 -1.693995E-10 -1.871146E-11 -6.457916E-09  0.000000E+00  0.000000E+00  0.000000E+00  0.000000E+00  0.000000E+00  0.000000E+00  0.000000E+00  0.000000E+00  1.661064E+00 -4.526040E-02 -4.999455E-03 -1.660440E+00                                                                                                                                                                                                                                                                                                                                                                                                                                                                                              
  7.800000E+02  1.250000E+02 -5.225000E+03  1.574816E-06 -4.514346E-08 -4.562485E-09 -1.574163E-06  6.463932E-09 -1.865153E-10 -1.885023E-11 -6.461213E-09  0.000000E+00  0.000000E+00  0.000000E+00  0.000000E+00  0.000000E+00  0.000000E+00  0.000000E+00  0.000000E+00  1.662241E+00 -4.983422E-02 -5.036564E-03 -1.661486E+00                                                                                                                                                                                                                                                                                                                                                                                                                                                                                              
  8.000000E+02  1.250000E+02 -5.225000E+03  1.576106E-06 -4.918671E-08 -4.596356E-09 -1.575331E-06  6.469441E-09 -2.032159E-10 -1.899013E-11 -6.466221E-09  0.000000E+00  0.000000E+00  0.000000E+00  0.000000E+00  0.000000E+00  0.000000E+00  0.000000E+00  0.000000E+00  1.664171E+00 -5.429765E-02 -5.074028E-03 -1.663277E+00                                                                                                                                                                                                                                                                                                                                                                                                                                                                                              
  9.350000E+02  1.250000E+02 -5.225000E+03  1.585445E-06 -7.121463E-08 -4.825988E-09 -1.583837E-06  6.508131E-09 -2.941896E-10 -1.993795E-11 -6.501447E-09  0.000000E+00  0.000000E+00  0.000000E+00  0.000000E+00  0.000000E+00  0.000000E+00  0.000000E+00  0.000000E+00  1.675635E+00 -7.860427E-02 -5.327463E-03 -1.673782E+00                                                                                                                                                                                                                                                                                                                                                                                                                                                                                              
  1.185000E+03  1.250000E+02 -5.225000E+03  1.632196E-06 -8.720628E-08 -5.242719E-09 -1.629856E-06  6.700050E-09 -3.602014E-10 -2.165545E-11 -6.690325E-09  0.000000E+00  0.000000E+00  0.000000E+00  0.000000E+00  0.000000E+00  0.000000E+00  0.000000E+00  0.000000E+00  1.728571E+00 -9.624216E-02 -5.786374E-03 -1.725880E+00                                                                                                                                                                                                                                                                                                                                                                                                                                                                                              
  1.435000E+03  1.250000E+02 -5.225000E+03  1.695234E-06 -4.158044E-08 -5.525578E-09 -1.694715E-06  6.958917E-09 -1.717305E-10 -2.282004E-11 -6.956760E-09  0.000000E+00  0.000000E+00  0.000000E+00  0.000000E+00  0.000000E+00  0.000000E+00  0.000000E+00  0.000000E+00  1.799683E+00 -4.588542E-02 -6.097707E-03 -1.799088E+00                                                                                                                                                                                                                                                                                                                                                                                                                                                                                              
  1.250000E+02  1.250000E+02 -4.975000E+03  3.241024E-06  5.936318E-08 -2.666337E-09 -3.240479E-06  1.302050E-08  2.408929E-10 -1.082501E-11 -1.301827E-08  0.000000E+00  0.000000E+00  0.000000E+00  0.000000E+00  0.000000E+00  0.000000E+00  0.000000E+00  0.000000E+00  3.103960E+00  6.192672E-02 -2.781497E-03 -3.103341E+00                                                                                                                                                                                                                                                                                                                                                                                                                                                                                              
  3.750000E+02  1.250000E+02 -4.975000E+03  3.075211E-06  9.123443E-08 -2.974942E-09 -3.073855E-06  1.233022E-08  3.701568E-10 -1.206851E-11 -1.232466E-08  0.000000E+00  0.000000E+00  0.000000E+00  0.000000E+00  0.000000E+00  0.000000E+00  0.000000E+00  0.000000E+00  2.880663E+00  9.503926E-02 -3.090858E-03 -2.879093E+00                                                                                                                                                                                                                                                                                                                                                                                                                                                                                              
  6.250000E+02  1.250000E+02 -4.975000E+03  2.999556E-06  9.078007E-09 -3.370016E-09 -2.999540E-06  1.201463E-08  3.683118E-11 -1.366626E-11 -1.201457E-08  0.000000E+00  0.000000E+00  0.000000E+00  0.000000E+00  0.000000E+00  0.000000E+00  0.000000E+00  0.000000E+00  2.777584E+00  9.471170E-03 -3.494482E-03 -2.777566E+00                                                                                                                                                                                                                                                                                                                                                                                                                                                                                              
  7.600000E+02  1.250000E+02 -4.975000E+03  3.003664E-06 -4.996907E-08 -3.610666E-09 -3.003247E-06  1.203293E-08 -2.026431E-10 -1.464257E-11 -1.203121E-08  0.000000E+00  0.000000E+00  0.000000E+00  0.000000E+00  0.000000E+00  0.000000E+00  0.000000E+00  0.000000E+00  2.786418E+00 -5.183343E-02 -3.745106E-03 -2.785933E+00                                                                                                                                                                                                                                                                                                                                                                                                                                                                                              
  7.800000E+02  1.250000E+02 -4.975000E+03  3.005900E-06 -5.864569E-08 -3.646932E-09 -3.005325E-06  1.204282E-08 -2.378435E-10 -1.479017E-11 -1.204046E-08  0.000000E+00  0.000000E+00  0.000000E+00  0.000000E+00  0.000000E+00  0.000000E+00  0.000000E+00  0.000000E+00  2.790693E+00 -6.085400E-02 -3.783403E-03 -2.790027E+00                                                                                                                                                                                                                                                                                                                                                                                                                                                                                              
  8.000000E+02  1.250000E+02 -4.975000E+03  3.011104E-06 -6.694273E-08 -3.684133E-09 -3.010357E-06  1.206604E-08 -2.715228E-10 -1.494256E-11 -1.206298E-08  0.000000E+00  0.000000E+00  0.000000E+00  0.000000E+00  0.000000E+00  0.000000E+00  0.000000E+00  0.000000E+00  2.800898E+00 -6.952590E-02 -3.823784E-03 -2.800032E+00                                                                                                                                                                                                                                                                                                                                                                                                                                                                                              
  9.350000E+02  1.250000E+02 -4.975000E+03  3.032017E-06 -1.127530E-07 -3.932748E-09 -3.029917E-06  1.215637E-08 -4.574460E-10 -1.595480E-11 -1.214775E-08  0.000000E+00  0.000000E+00  0.000000E+00  0.000000E+00  0.000000E+00  0.000000E+00  0.000000E+00  0.000000E+00  2.836081E+00 -1.174099E-01 -4.087084E-03 -2.833647E+00                                                                                                                                                                                                                                                                                                                                                                                                                                                                                              
  1.185000E+03  1.250000E+02 -4.975000E+03  3.128010E-06 -1.666348E-07 -4.435976E-09 -3.123565E-06  1.255950E-08 -6.762885E-10 -1.800443E-11 -1.254127E-08  0.000000E+00  0.000000E+00  0.000000E+00  0.000000E+00  0.000000E+00  0.000000E+00  0.000000E+00  0.000000E+00  2.974577E+00 -1.740230E-01 -4.623572E-03 -2.969479E+00                                                                                                                                                                                                                                                                                                                                                                                                                                                                                              
  1.435000E+03  1.250000E+02 -4.975000E+03  3.321326E-06 -8.935465E-08 -4.857597E-09 -3.320120E-06  1.336059E-08 -3.627321E-10 -1.972757E-11 -1.335565E-08  0.000000E+00  0.000000E+00  0.000000E+00  0.000000E+00  0.000000E+00  0.000000E+00  0.000000E+00  0.000000E+00  3.229460E+00 -9.347712E-02 -5.081867E-03 -3.228103E+00                                                                                                                                                                                                                                                                                                                                                                                                                                                                                              
  1.250000E+02  1.250000E+02 -4.725000E+03  5.035387E-06  1.308981E-07 -8.212983E-10 -5.033686E-06  1.932586E-08  5.108676E-10 -3.216305E-12 -1.931911E-08  0.000000E+00  0.000000E+00  0.000000E+00  0.000000E+00  0.000000E+00  0.000000E+00  0.000000E+00  0.000000E+00  3.268742E+00  1.186888E-01 -7.446480E-04 -3.266586E+00                                                                                                                                                                                                                                                                                                                                                                                                                                                                                              
  3.750000E+02  1.250000E+02 -4.725000E+03  4.577972E-06  1.841820E-07 -1.289579E-09 -4.574265E-06  1.748863E-08  7.178987E-10 -5.018914E-12 -1.747389E-08  0.000000E+00  0.000000E+00  0.000000E+00  0.000000E+00  0.000000E+00  0.000000E+00  0.000000E+00  0.000000E+00  2.773562E+00  1.652562E-01 -1.127047E-03 -2.768634E+00                                                                                                                                                                                                                                                                                                                                                                                                                                                                                              
  6.250000E+02  1.250000E+02 -4.725000E+03  4.483077E-06  3.773827E-08 -1.626516E-09 -4.482917E-06  1.708812E-08  1.467012E-10 -6.310967E-12 -1.708749E-08  0.000000E+00  0.000000E+00  0.000000E+00  0.000000E+00  0.000000E+00  0.000000E+00  0.000000E+00  0.000000E+00  2.646788E+00  3.319712E-02 -1.395123E-03 -2.646579E+00                                                                                                                                                                                                                                                                                                                                                                                                                                                                                              
  7.600000E+02  1.250000E+02 -4.725000E+03  4.477439E-06 -3.725761E-08 -1.807864E-09 -4.477283E-06  1.707164E-08 -1.446189E-10 -7.017719E-12 -1.707103E-08  0.000000E+00  0.000000E+00  0.000000E+00  0.000000E+00  0.000000E+00  0.000000E+00  0.000000E+00  0.000000E+00  2.649986E+00 -3.206711E-02 -1.555015E-03 -2.649791E+00                                                                                                                                                                                                                                                                                                                                                                                                                                                                                              
  7.800000E+02  1.250000E+02 -4.725000E+03  4.478710E-06 -4.973737E-08 -1.836512E-09 -4.478434E-06  1.707877E-08 -1.931263E-10 -7.130393E-12 -1.707768E-08  0.000000E+00  0.000000E+00  0.000000E+00  0.000000E+00  0.000000E+00  0.000000E+00  0.000000E+00  0.000000E+00  2.653794E+00 -4.290499E-02 -1.581626E-03 -2.653447E+00                                                                                                                                                                                                                                                                                                                                                                                                                                                                                              
  8.000000E+02  1.250000E+02 -4.725000E+03  4.482282E-06 -6.276093E-08 -1.868493E-09 -4.481842E-06  1.709807E-08 -2.438594E-10 -7.258338E-12 -1.709633E-08  0.000000E+00  0.000000E+00  0.000000E+00  0.000000E+00  0.000000E+00  0.000000E+00  0.000000E+00  0.000000E+00  2.662982E+00 -5.447275E-02 -1.614155E-03 -2.662425E+00                                                                                                                                                                                                                                                                                                                                                                                                                                                                                              
  9.350000E+02  1.250000E+02 -4.725000E+03  4.534480E-06 -1.295616E-07 -2.072038E-09 -4.532629E-06  1.731304E-08 -5.046286E-10 -8.060537E-12 -1.730569E-08  0.000000E+00  0.000000E+00  0.000000E+00  0.000000E+00  0.000000E+00  0.000000E+00  0.000000E+00  0.000000E+00  2.724392E+00 -1.150829E-01 -1.805555E-03 -2.721960E+00                                                                                                                                                                                                                                                                                                                                                                                                                                                                                              
  1.185000E+03  1.250000E+02 -4.725000E+03  4.631360E-06 -2.763494E-07 -2.638852E-09 -4.623107E-06  1.773990E-08 -1.080831E-09 -1.031033E-11 -1.770694E-08  0.000000E+00  0.000000E+00  0.000000E+00  0.000000E+00  0.000000E+00  0.000000E+00  0.000000E+00  0.000000E+00  2.885045E+00 -2.533348E-01 -2.360750E-03 -2.873899E+00                                                                                                                                                                                                                                                                                                                                                                                                                                                                                              