Title="TOUGHREACT V3.30-OMP flowvector.tec: Liq & Gas Fluxes (kg/s/m^2), Pore Velocities (m/s), & Heat Fluxes (J/s/m2)"                                                                                                                                                                                                                                                                                                                                                                                                                                                                                                                                                                                                                                                                                                         
Variables= "X(m)"     "Y(m)"      "Z(m)"     "FluxLiq"   "FluxLiq_X"   "FluxLiq_Y"   "FluxLiq_Z"   "PorVelLiq"  "PorVelLiqX"  "PorVelLiqY"  "PorVelLiqZ"     "FluxGas"   "FluxGas_X"   "FluxGas_Y"   "FluxGas_Z"   "PorVelGas"  "PorVelGasX"  "PorVelGasY"  "PorVelGasZ"    "HeatFlux"  "HeatFlux_X"  "HeatFlux_Y"  "HeatFlux_Z"                                                                                                                                                                                                                                                                                                                                                                                                                                                                                                
Zone T= "3.00000000E+10 sec" I=     9 J=    10 K=    23 F=Point
  1.250000E+02  1.250000E+02 -5.425000E+03  1.834794E-08 -4.614397E-10  1.057190E-10 -1.834183E-08  6.449050E-11 -1.634789E-12  3.745327E-13 -6.446869E-11  0.000000E+00  0.000000E+00  0.000000E+00  0.000000E+00  0.000000E+00  0.000000E+00  0.000000E+00  0.000000E+00  2.094850E-02 -5.594214E-04  1.281433E-04 -2.094064E-02                                                                                                                                                                                                                                                                                                                                                                                                                                                                                              
  3.750000E+02  1.250000E+02 -5.425000E+03  1.886775E-08 -5.335493E-10  1.099171E-10 -1.885988E-08  6.631712E-11 -1.890271E-12  3.894250E-13 -6.628904E-11  0.000000E+00  0.000000E+00  0.000000E+00  0.000000E+00  0.000000E+00  0.000000E+00  0.000000E+00  0.000000E+00  2.153666E-02 -6.468564E-04  1.332568E-04 -2.152653E-02                                                                                                                                                                                                                                                                                                                                                                                                                                                                                              
  6.250000E+02  1.250000E+02 -5.425000E+03  1.913977E-08  6.814637E-10  1.164998E-10 -1.912728E-08  6.727496E-11  2.414454E-12  4.127649E-13 -6.723035E-11  0.000000E+00  0.000000E+00  0.000000E+00  0.000000E+00  0.000000E+00  0.000000E+00  0.000000E+00  0.000000E+00  2.184791E-02  8.262948E-04  1.412595E-04 -2.183182E-02                                                                                                                                                                                                                                                                                                                                                                                                                                                                                              
  7.600000E+02  1.250000E+02 -5.425000E+03  1.914924E-08  1.567341E-09  1.206577E-10 -1.908461E-08  6.731087E-11  5.553134E-12  4.274932E-13 -6.708005E-11  0.000000E+00  0.000000E+00  0.000000E+00  0.000000E+00  0.000000E+00  0.000000E+00  0.000000E+00  0.000000E+00  2.186607E-02  1.900417E-03  1.462965E-04 -2.178284E-02                                                                                                                                                                                                                                                                                                                                                                                                                                                                                              
  7.800000E+02  1.250000E+02 -5.425000E+03  1.914248E-08  1.685505E-09  1.212785E-10 -1.906775E-08  6.728782E-11  5.971777E-12  4.296923E-13 -6.702093E-11  0.000000E+00  0.000000E+00  0.000000E+00  0.000000E+00  0.000000E+00  0.000000E+00  0.000000E+00  0.000000E+00  2.186026E-02  2.043656E-03  1.470485E-04 -2.176402E-02                                                                                                                                                                                                                                                                                                                                                                                                                                                                                              
  8.000000E+02  1.250000E+02 -5.425000E+03  1.911757E-08  1.796738E-09  1.218993E-10 -1.903256E-08  6.720135E-11  6.365852E-12  4.318914E-13 -6.689776E-11  0.000000E+00  0.000000E+00  0.000000E+00  0.000000E+00  0.000000E+00  0.000000E+00  0.000000E+00  0.000000E+00  2.183471E-02  2.178515E-03  1.478006E-04 -2.172526E-02                                                                                                                                                                                                                                                                                                                                                                                                                                                                                              
  9.350000E+02  1.250000E+02 -5.425000E+03  1.903557E-08  2.289911E-09  1.260889E-10 -1.889692E-08  6.691669E-11  8.112973E-12  4.467303E-13 -6.642156E-11  0.000000E+00  0.000000E+00  0.000000E+00  0.000000E+00  0.000000E+00  0.000000E+00  0.000000E+00  0.000000E+00  2.175125E-02  2.776397E-03  1.528734E-04 -2.157279E-02                                                                                                                                                                                                                                                                                                                                                                                                                                                                                              
  1.185000E+03  1.250000E+02 -5.425000E+03  1.865174E-08  2.486169E-09  1.333710E-10 -1.848482E-08  6.556822E-11  8.807980E-12  4.725052E-13 -6.497221E-11  0.000000E+00  0.000000E+00  0.000000E+00  0.000000E+00  0.000000E+00  0.000000E+00  0.000000E+00  0.000000E+00  2.131896E-02  3.014011E-03  1.616686E-04 -2.110421E-02                                                                                                                                                                                                                                                                                                                                                                                                                                                                                              
  1.435000E+03  1.250000E+02 -5.425000E+03  1.798960E-08  1.121260E-09  1.381187E-10 -1.795410E-08  6.323398E-11  3.972281E-12  4.893017E-13 -6.310720E-11  0.000000E+00  0.000000E+00  0.000000E+00  0.000000E+00  0.000000E+00  0.000000E+00  0.000000E+00  0.000000E+00  2.054874E-02  1.359161E-03  1.673923E-04 -2.050306E-02                                                                                                                                                                                                                                                                                                                                                                                                                                                                                              
  1.250000E+02  1.250000E+02 -5.225000E+03  7.361327E-08 -8.531287E-10  9.479771E-11 -7.360827E-08  2.555283E-10 -2.975886E-12  3.306852E-13 -2.555108E-10  0.000000E+00  0.000000E+00  0.000000E+00  0.000000E+00  0.000000E+00  0.000000E+00  0.000000E+00  0.000000E+00  7.938134E-02 -9.737546E-04  1.082294E-04 -7.937530E-02                                                                                                                                                                                                                                                                                                                                                                                                                                                                                              
  3.750000E+02  1.250000E+02 -5.225000E+03  7.608747E-08 -1.188598E-09  9.967270E-11 -7.607812E-08  2.639577E-10 -4.146029E-12  3.476672E-13 -2.639249E-10  0.000000E+00  0.000000E+00  0.000000E+00  0.000000E+00  0.000000E+00  0.000000E+00  0.000000E+00  0.000000E+00  8.162183E-02 -1.356658E-03  1.137657E-04 -8.161047E-02                                                                                                                                                                                                                                                                                                                                                                                                                                                                                              
  6.250000E+02  1.250000E+02 -5.225000E+03  7.728978E-08  4.855488E-10  1.066966E-10 -7.728818E-08  2.680549E-10  1.693631E-12  3.721671E-13 -2.680493E-10  0.000000E+00  0.000000E+00  0.000000E+00  0.000000E+00  0.000000E+00  0.000000E+00  0.000000E+00  0.000000E+00  8.270019E-02  5.542039E-04  1.217831E-04 -8.269824E-02                                                                                                                                                                                                                                                                                                                                                                                                                                                                                              
  7.600000E+02  1.250000E+02 -5.225000E+03  7.720058E-08  1.732917E-09  1.110596E-10 -7.718105E-08  2.677564E-10  6.044558E-12  3.873850E-13 -2.676879E-10  0.000000E+00  0.000000E+00  0.000000E+00  0.000000E+00  0.000000E+00  0.000000E+00  0.000000E+00  0.000000E+00  8.263851E-02  1.977933E-03  1.267615E-04 -8.261474E-02                                                                                                                                                                                                                                                                                                                                                                                                                                                                                              
  7.800000E+02  1.250000E+02 -5.225000E+03  7.711922E-08  1.910682E-09  1.117115E-10 -7.709547E-08  2.674814E-10  6.664666E-12  3.896611E-13 -2.673981E-10  0.000000E+00  0.000000E+00  0.000000E+00  0.000000E+00  0.000000E+00  0.000000E+00  0.000000E+00  0.000000E+00  8.257009E-02  2.180842E-03  1.275081E-04 -8.254119E-02                                                                                                                                                                                                                                                                                                                                                                                                                                                                                              
  8.000000E+02  1.250000E+02 -5.225000E+03  7.689183E-08  2.071981E-09  1.123693E-10 -7.686383E-08  2.667118E-10  7.227414E-12  3.919619E-13 -2.666135E-10  0.000000E+00  0.000000E+00  0.000000E+00  0.000000E+00  0.000000E+00  0.000000E+00  0.000000E+00  0.000000E+00  8.237442E-02  2.365048E-03  1.282671E-04 -8.234036E-02                                                                                                                                                                                                                                                                                                                                                                                                                                                                                              
  9.350000E+02  1.250000E+02 -5.225000E+03  7.632686E-08  2.773396E-09  1.167907E-10 -7.627636E-08  2.647975E-10  9.674332E-12  4.073965E-13 -2.646204E-10  0.000000E+00  0.000000E+00  0.000000E+00  0.000000E+00  0.000000E+00  0.000000E+00  0.000000E+00  0.000000E+00  8.189024E-02  3.165984E-03  1.333287E-04 -8.182891E-02                                                                                                                                                                                                                                                                                                                                                                                                                                                                                              
  1.185000E+03  1.250000E+02 -5.225000E+03  7.466722E-08  3.212926E-09  1.246952E-10 -7.459796E-08  2.591493E-10  1.120789E-11  4.349815E-13 -2.589065E-10  0.000000E+00  0.000000E+00  0.000000E+00  0.000000E+00  0.000000E+00  0.000000E+00  0.000000E+00  0.000000E+00  8.041624E-02  3.668041E-03  1.423651E-04 -8.033241E-02                                                                                                                                                                                                                                                                                                                                                                                                                                                                                              
  1.435000E+03  1.250000E+02 -5.225000E+03  7.217361E-08  1.512728E-09  1.300723E-10 -7.215764E-08  2.506411E-10  5.277092E-12  4.537677E-13 -2.505852E-10  0.000000E+00  0.000000E+00  0.000000E+00  0.000000E+00  0.000000E+00  0.000000E+00  0.000000E+00  0.000000E+00  7.812215E-02  1.727089E-03  1.485388E-04 -7.810291E-02                                                                                                                                                                                                                                                                                                                                                                                                                                                                                              
  1.250000E+02  1.250000E+02 -4.975000E+03  1.484345E-07 -8.734774E-10  6.952348E-11 -1.484319E-07  5.038130E-10 -2.991114E-12  2.382495E-13 -5.038040E-10  0.000000E+00  0.000000E+00  0.000000E+00  0.000000E+00  0.000000E+00  0.000000E+00  0.000000E+00  0.000000E+00  1.369164E-01 -9.172244E-04  7.350900E-05 -1.369133E-01                                                                                                                                                                                                                                                                                                                                                                                                                                                                                              
  3.750000E+02  1.250000E+02 -4.975000E+03  1.539687E-07 -1.260822E-09  7.331686E-11 -1.539635E-07  5.214580E-10 -4.316010E-12  2.508682E-13 -5.214401E-10  0.000000E+00  0.000000E+00  0.000000E+00  0.000000E+00  0.000000E+00  0.000000E+00  0.000000E+00  0.000000E+00  1.390859E-01 -1.322588E-03  7.698884E-05 -1.390796E-01                                                                                                                                                                                                                                                                                                                                                                                                                                                                                              
  6.250000E+02  1.250000E+02 -4.975000E+03  1.565448E-07  2.651949E-10  7.888843E-11 -1.565445E-07  5.296121E-10  9.063649E-13  2.697317E-13 -5.296113E-10  0.000000E+00  0.000000E+00  0.000000E+00  0.000000E+00  0.000000E+00  0.000000E+00  0.000000E+00  0.000000E+00  1.398985E-01  2.775312E-04  8.255816E-05 -1.398982E-01                                                                                                                                                                                                                                                                                                                                                                                                                                                                                              
  7.600000E+02  1.250000E+02 -4.975000E+03  1.563776E-07  1.385923E-09  8.266151E-11 -1.563714E-07  5.291335E-10  4.739180E-12  2.826663E-13 -5.291122E-10  0.000000E+00  0.000000E+00  0.000000E+00  0.000000E+00  0.000000E+00  0.000000E+00  0.000000E+00  0.000000E+00  1.399787E-01  1.450809E-03  8.655361E-05 -1.399711E-01                                                                                                                                                                                                                                                                                                                                                                                                                                                                                              
  7.800000E+02  1.250000E+02 -4.975000E+03  1.561956E-07  1.544626E-09  8.323770E-11 -1.561880E-07  5.285596E-10  5.282400E-12  2.846543E-13 -5.285331E-10  0.000000E+00  0.000000E+00  0.000000E+00  0.000000E+00  0.000000E+00  0.000000E+00  0.000000E+00  0.000000E+00  1.399205E-01  1.617595E-03  8.718164E-05 -1.399111E-01                                                                                                                                                                                                                                                                                                                                                                                                                                                                                              
  8.000000E+02  1.250000E+02 -4.975000E+03  1.556600E-07  1.690568E-09  8.384265E-11 -1.556508E-07  5.268522E-10  5.782687E-12  2.867684E-13 -5.268204E-10  0.000000E+00  0.000000E+00  0.000000E+00  0.000000E+00  0.000000E+00  0.000000E+00  0.000000E+00  0.000000E+00  1.397020E-01  1.771334E-03  8.787860E-05 -1.396908E-01                                                                                                                                                                                                                                                                                                                                                                                                                                                                                              
  9.350000E+02  1.250000E+02 -4.975000E+03  1.545027E-07  2.402548E-09  8.779994E-11 -1.544840E-07  5.232090E-10  8.223302E-12  3.004294E-13 -5.231442E-10  0.000000E+00  0.000000E+00  0.000000E+00  0.000000E+00  0.000000E+00  0.000000E+00  0.000000E+00  0.000000E+00  1.393463E-01  2.521242E-03  9.220173E-05 -1.393234E-01                                                                                                                                                                                                                                                                                                                                                                                                                                                                                              
  1.185000E+03  1.250000E+02 -4.975000E+03  1.511078E-07  3.001487E-09  9.554273E-11 -1.510779E-07  5.125286E-10  1.028298E-11  3.272934E-13 -5.124253E-10  0.000000E+00  0.000000E+00  0.000000E+00  0.000000E+00  0.000000E+00  0.000000E+00  0.000000E+00  0.000000E+00  1.384025E-01  3.159917E-03  1.008467E-04 -1.383664E-01                                                                                                                                                                                                                                                                                                                                                                                                                                                                                              
  1.435000E+03  1.250000E+02 -4.975000E+03  1.455659E-07  1.478265E-09  1.017260E-10 -1.455584E-07  4.948500E-10  5.067885E-12  3.490005E-13 -4.948239E-10  0.000000E+00  0.000000E+00  0.000000E+00  0.000000E+00  0.000000E+00  0.000000E+00  0.000000E+00  0.000000E+00  1.362043E-01  1.560329E-03  1.081000E-04 -1.361953E-01                                                                                                                                                                                                                                                                                                                                                                                                                                                                                              
  1.250000E+02  1.250000E+02 -4.725000E+03  2.276646E-07  2.785742E-10  3.335397E-11 -2.276645E-07  7.413584E-10  9.136972E-13  1.096588E-13 -7.413579E-10  0.000000E+00  0.000000E+00  0.000000E+00  0.000000E+00  0.000000E+00  0.000000E+00  0.000000E+00  0.000000E+00  1.327203E-01  2.346592E-04  2.809598E-05 -1.327201E-01                                                                                                                                                                                                                                                                                                                                                                                                                                                                                              
  3.750000E+02  1.250000E+02 -4.725000E+03  2.342872E-07  4.186324E-10  3.252108E-11 -2.342868E-07  7.610268E-10  1.371522E-12  1.064337E-13 -7.610255E-10  0.000000E+00  0.000000E+00  0.000000E+00  0.000000E+00  0.000000E+00  0.000000E+00  0.000000E+00  0.000000E+00  1.341224E-01  3.490213E-04  2.655453E-05 -1.341219E-01                                                                                                                                                                                                                                                                                                                                                                                                                                                                                              
  6.250000E+02  1.250000E+02 -4.725000E+03  2.376521E-07  2.941346E-10  3.350885E-11 -2.376519E-07  7.709690E-10  9.610090E-13  1.094146E-13 -7.709683E-10  0.000000E+00  0.000000E+00  0.000000E+00  0.000000E+00  0.000000E+00  0.000000E+00  0.000000E+00  0.000000E+00  1.347485E-01  2.381321E-04  2.691774E-05 -1.347483E-01                                                                                                                                                                                                                                                                                                                                                                                                                                                                                              
  7.600000E+02  1.250000E+02 -4.725000E+03  2.373053E-07  2.978228E-10  3.473726E-11 -2.373051E-07  7.700020E-10  9.727468E-13  1.134648E-13 -7.700014E-10  0.000000E+00  0.000000E+00  0.000000E+00  0.000000E+00  0.000000E+00  0.000000E+00  0.000000E+00  0.000000E+00  1.347614E-01  2.395265E-04  2.797335E-05 -1.347612E-01                                                                                                                                                                                                                                                                                                                                                                                                                                                                                              
  7.800000E+02  1.250000E+02 -4.725000E+03  2.370753E-07  2.767267E-10  3.493947E-11 -2.370751E-07  7.693222E-10  9.040765E-13  1.141429E-13 -7.693216E-10  0.000000E+00  0.000000E+00  0.000000E+00  0.000000E+00  0.000000E+00  0.000000E+00  0.000000E+00  0.000000E+00  1.347112E-01  2.229614E-04  2.816718E-05 -1.347110E-01                                                                                                                                                                                                                                                                                                                                                                                                                                                                                              
  8.000000E+02  1.250000E+02 -4.725000E+03  2.364357E-07  2.575968E-10  3.518974E-11 -2.364356E-07  7.674079E-10  8.419900E-13  1.150047E-13 -7.674074E-10  0.000000E+00  0.000000E+00  0.000000E+00  0.000000E+00  0.000000E+00  0.000000E+00  0.000000E+00  0.000000E+00  1.345355E-01  2.079427E-04  2.844679E-05 -1.345353E-01                                                                                                                                                                                                                                                                                                                                                                                                                                                                                              
  9.350000E+02  1.250000E+02 -4.725000E+03  2.351227E-07  2.279864E-10  3.652862E-11 -2.351226E-07  7.635878E-10  7.462385E-13  1.195027E-13 -7.635875E-10  0.000000E+00  0.000000E+00  0.000000E+00  0.000000E+00  0.000000E+00  0.000000E+00  0.000000E+00  0.000000E+00  1.343541E-01  1.849067E-04  2.974340E-05 -1.343540E-01                                                                                                                                                                                                                                                                                                                                                                                                                                                                                              
  1.185000E+03  1.250000E+02 -4.725000E+03  2.306673E-07 -9.102624E-11  3.865897E-11 -2.306673E-07  7.505282E-10 -3.008178E-13  1.268987E-13 -7.505281E-10  0.000000E+00  0.000000E+00  0.000000E+00  0.000000E+00  0.000000E+00  0.000000E+00  0.000000E+00  0.000000E+00  1.336168E-01 -8.307634E-05  3.221616E-05 -1.336168E-01                                                                                                                                                                                                                                                                                                                                                                                                                                                                                              