Title="TOUGHREACT V3.30-OMP flowvector.tec: Liq & Gas Fluxes (kg/s/m^2), Pore Velocities (m/s), & Heat Fluxes (J/s/m2)"                                                                                                                                                                                                                                                                                                                                                                                                                                                                                                                                                                                                                                                                                                         
Variables= "X(m)"     "Y(m)"      "Z(m)"     "FluxLiq"   "FluxLiq_X"   "FluxLiq_Y"   "FluxLiq_Z"   "PorVelLiq"  "PorVelLiqX"  "PorVelLiqY"  "PorVelLiqZ"     "FluxGas"   "FluxGas_X"   "FluxGas_Y"   "FluxGas_Z"   "PorVelGas"  "PorVelGasX"  "PorVelGasY"  "PorVelGasZ"    "HeatFlux"  "HeatFlux_X"  "HeatFlux_Y"  "HeatFlux_Z"                                                                                                                                                                                                                                                                                                                                                                                                                                                                                                
Zone T= "5.33000000E+10 sec" I=     9 J=    10 K=    23 F=Point
  1.250000E+02  1.250000E+02 -5.425000E+03  7.416355E-10 -6.611149E-10  1.439858E-10 -3.036748E-10  2.606939E-12 -2.327747E-12  5.069555E-13 -1.058642E-12  0.000000E+00  0.000000E+00  0.000000E+00  0.000000E+00  0.000000E+00  0.000000E+00  0.000000E+00  0.000000E+00  9.040848E-04 -8.155314E-04  1.775876E-04 -3.474775E-04                                                                                                                                                                                                                                                                                                                                                                                                                                                                                              
  3.750000E+02  1.250000E+02 -5.425000E+03  1.308983E-09 -8.098388E-10  1.499977E-10 -1.017398E-09  4.581313E-12 -2.851417E-12  5.281460E-13 -3.546676E-12  0.000000E+00  0.000000E+00  0.000000E+00  0.000000E+00  0.000000E+00  0.000000E+00  0.000000E+00  0.000000E+00  1.544857E-03 -9.990190E-04  1.850327E-04 -1.163748E-03                                                                                                                                                                                                                                                                                                                                                                                                                                                                                              
  6.250000E+02  1.250000E+02 -5.425000E+03  1.649929E-09  8.482243E-10  1.595450E-10 -1.406174E-09  5.767675E-12  2.986736E-12  5.617848E-13 -4.902029E-12  0.000000E+00  0.000000E+00  0.000000E+00  0.000000E+00  0.000000E+00  0.000000E+00  0.000000E+00  0.000000E+00  1.928932E-03  1.046494E-03  1.968382E-04 -1.608379E-03                                                                                                                                                                                                                                                                                                                                                                                                                                                                                              
  7.600000E+02  1.250000E+02 -5.425000E+03  2.480250E-09  2.077037E-09  1.656330E-10 -1.345409E-09  8.707813E-12  7.313552E-12  5.832179E-13 -4.690183E-12  0.000000E+00  0.000000E+00  0.000000E+00  0.000000E+00  0.000000E+00  0.000000E+00  0.000000E+00  0.000000E+00  2.996042E-03  2.562500E-03  2.043434E-04 -1.538865E-03                                                                                                                                                                                                                                                                                                                                                                                                                                                                                              
  7.800000E+02  1.250000E+02 -5.425000E+03  2.607597E-09  2.240409E-09  1.665394E-10 -1.323779E-09  9.158236E-12  7.888797E-12  5.864091E-13 -4.614791E-12  0.000000E+00  0.000000E+00  0.000000E+00  0.000000E+00  0.000000E+00  0.000000E+00  0.000000E+00  0.000000E+00  3.158269E-03  2.764013E-03  2.054608E-04 -1.514159E-03                                                                                                                                                                                                                                                                                                                                                                                                                                                                                              
  8.000000E+02  1.250000E+02 -5.425000E+03  2.720953E-09  2.395050E-09  1.674479E-10 -1.280343E-09  9.559806E-12  8.433281E-12  5.896076E-13 -4.463410E-12  0.000000E+00  0.000000E+00  0.000000E+00  0.000000E+00  0.000000E+00  0.000000E+00  0.000000E+00  0.000000E+00  3.304306E-03  2.954785E-03  2.065810E-04 -1.464584E-03                                                                                                                                                                                                                                                                                                                                                                                                                                                                                              
  9.350000E+02  1.250000E+02 -5.425000E+03  3.292955E-09  3.098331E-09  1.735798E-10 -1.101713E-09  1.158186E-11  1.090939E-11  6.111933E-13 -3.840734E-12  0.000000E+00  0.000000E+00  0.000000E+00  0.000000E+00  0.000000E+00  0.000000E+00  0.000000E+00  0.000000E+00  4.030470E-03  3.822328E-03  2.141373E-04 -1.260414E-03                                                                                                                                                                                                                                                                                                                                                                                                                                                                                              
  1.185000E+03  1.250000E+02 -5.425000E+03  3.447354E-09  3.401334E-09  1.842546E-10 -5.303047E-10  1.213510E-11  1.197589E-11  6.487495E-13 -1.848718E-12  0.000000E+00  0.000000E+00  0.000000E+00  0.000000E+00  0.000000E+00  0.000000E+00  0.000000E+00  0.000000E+00  4.245447E-03  4.195710E-03  2.272635E-04 -6.067866E-04                                                                                                                                                                                                                                                                                                                                                                                                                                                                                              
  1.435000E+03  1.250000E+02 -5.425000E+03  1.562097E-09  1.537733E-09  1.910374E-10  1.975565E-10  5.499062E-12  5.414135E-12  6.726030E-13  6.887914E-13  0.000000E+00  0.000000E+00  0.000000E+00  0.000000E+00  0.000000E+00  0.000000E+00  0.000000E+00  0.000000E+00  1.926713E-03  1.896671E-03  2.355907E-04  2.436302E-04                                                                                                                                                                                                                                                                                                                                                                                                                                                                                              
  1.250000E+02  1.250000E+02 -5.225000E+03  7.287204E-09 -1.168632E-09  1.288782E-10 -7.191734E-09  2.495610E-11 -4.034328E-12  4.449315E-13 -2.462384E-11  0.000000E+00  0.000000E+00  0.000000E+00  0.000000E+00  0.000000E+00  0.000000E+00  0.000000E+00  0.000000E+00  7.754153E-03 -1.336736E-03  1.474678E-04 -7.636641E-03                                                                                                                                                                                                                                                                                                                                                                                                                                                                                              
  3.750000E+02  1.250000E+02 -5.225000E+03  1.063205E-08 -1.659116E-09  1.357102E-10 -1.050092E-08  3.642069E-11 -5.727480E-12  4.684756E-13 -3.596447E-11  0.000000E+00  0.000000E+00  0.000000E+00  0.000000E+00  0.000000E+00  0.000000E+00  0.000000E+00  0.000000E+00  1.128822E-02 -1.897750E-03  1.552317E-04 -1.112647E-02                                                                                                                                                                                                                                                                                                                                                                                                                                                                                              
  6.250000E+02  1.250000E+02 -5.225000E+03  1.220611E-08  5.845252E-10  1.457275E-10 -1.219124E-08  4.180618E-11  2.017758E-12  5.030493E-13 -4.175443E-11  0.000000E+00  0.000000E+00  0.000000E+00  0.000000E+00  0.000000E+00  0.000000E+00  0.000000E+00  0.000000E+00  1.291576E-02  6.685786E-04  1.666828E-04 -1.289737E-02                                                                                                                                                                                                                                                                                                                                                                                                                                                                                              
  7.600000E+02  1.250000E+02 -5.225000E+03  1.224544E-08  2.271867E-09  1.519877E-10 -1.203189E-08  4.195083E-11  7.842456E-12  5.246595E-13 -4.120792E-11  0.000000E+00  0.000000E+00  0.000000E+00  0.000000E+00  0.000000E+00  0.000000E+00  0.000000E+00  0.000000E+00  1.299460E-02  2.598546E-03  1.738419E-04 -1.273094E-02                                                                                                                                                                                                                                                                                                                                                                                                                                                                                              
  7.800000E+02  1.250000E+02 -5.225000E+03  1.218643E-08  2.510412E-09  1.529230E-10 -1.192408E-08  4.175196E-11  8.665983E-12  5.278914E-13 -4.083929E-11  0.000000E+00  0.000000E+00  0.000000E+00  0.000000E+00  0.000000E+00  0.000000E+00  0.000000E+00  0.000000E+00  1.294304E-02  2.871417E-03  1.749157E-04 -1.261930E-02                                                                                                                                                                                                                                                                                                                                                                                                                                                                                              
  8.000000E+02  1.250000E+02 -5.225000E+03  1.195896E-08  2.728384E-09  1.538666E-10 -1.164255E-08  4.097813E-11  9.418610E-12  5.311585E-13 -3.987749E-11  0.000000E+00  0.000000E+00  0.000000E+00  0.000000E+00  0.000000E+00  0.000000E+00  0.000000E+00  0.000000E+00  1.271868E-02  3.120886E-03  1.760078E-04 -1.232858E-02                                                                                                                                                                                                                                                                                                                                                                                                                                                                                              
  9.350000E+02  1.250000E+02 -5.225000E+03  1.149385E-08  3.694266E-09  1.602084E-10 -1.088280E-08  3.940169E-11  1.275338E-11  5.530707E-13 -3.727651E-11  0.000000E+00  0.000000E+00  0.000000E+00  0.000000E+00  0.000000E+00  0.000000E+00  0.000000E+00  0.000000E+00  1.228682E-02  4.226212E-03  1.832864E-04 -1.153566E-02                                                                                                                                                                                                                                                                                                                                                                                                                                                                                              
  1.185000E+03  1.250000E+02 -5.225000E+03  9.635039E-09  4.308498E-09  1.715011E-10 -8.616345E-09  3.304924E-11  1.487452E-11  5.920823E-13 -2.950678E-11  0.000000E+00  0.000000E+00  0.000000E+00  0.000000E+00  0.000000E+00  0.000000E+00  0.000000E+00  0.000000E+00  1.039283E-02  4.929488E-03  1.962355E-04 -9.147269E-03                                                                                                                                                                                                                                                                                                                                                                                                                                                                                              
  1.435000E+03  1.250000E+02 -5.225000E+03  5.736405E-09  2.029061E-09  1.791521E-10 -5.362570E-09  1.964684E-11  7.005314E-12  6.185488E-13 -1.834506E-11  0.000000E+00  0.000000E+00  0.000000E+00  0.000000E+00  0.000000E+00  0.000000E+00  0.000000E+00  0.000000E+00  6.131454E-03  2.321698E-03  2.050540E-04 -5.671190E-03                                                                                                                                                                                                                                                                                                                                                                                                                                                                                              
  1.250000E+02  1.250000E+02 -4.975000E+03  2.032668E-08 -1.442494E-09  9.471010E-11 -2.027521E-08  6.821561E-11 -4.887930E-12  3.211779E-13 -6.803951E-11  0.000000E+00  0.000000E+00  0.000000E+00  0.000000E+00  0.000000E+00  0.000000E+00  0.000000E+00  0.000000E+00  1.858412E-02 -1.515382E-03  1.002252E-04 -1.852196E-02                                                                                                                                                                                                                                                                                                                                                                                                                                                                                              
  3.750000E+02  1.250000E+02 -4.975000E+03  2.786727E-08 -2.147065E-09  1.006240E-10 -2.778425E-08  9.331593E-11 -7.272492E-12  3.406851E-13 -9.303149E-11  0.000000E+00  0.000000E+00  0.000000E+00  0.000000E+00  0.000000E+00  0.000000E+00  0.000000E+00  0.000000E+00  2.494715E-02 -2.252873E-03  1.057085E-04 -2.484499E-02                                                                                                                                                                                                                                                                                                                                                                                                                                                                                              
  6.250000E+02  1.250000E+02 -4.975000E+03  3.134247E-08  2.068582E-10  1.090360E-10 -3.134160E-08  1.048371E-10  6.990280E-13  3.688740E-13 -1.048341E-10  0.000000E+00  0.000000E+00  0.000000E+00  0.000000E+00  0.000000E+00  0.000000E+00  0.000000E+00  0.000000E+00  2.773458E-02  2.165236E-04  1.141307E-04 -2.773350E-02                                                                                                                                                                                                                                                                                                                                                                                                                                                                                              
  7.600000E+02  1.250000E+02 -4.975000E+03  3.120703E-08  1.952172E-09  1.145583E-10 -3.114570E-08  1.044030E-10  6.605011E-12  3.876041E-13 -1.041931E-10  0.000000E+00  0.000000E+00  0.000000E+00  0.000000E+00  0.000000E+00  0.000000E+00  0.000000E+00  0.000000E+00  2.767500E-02  2.043998E-03  1.199783E-04 -2.759916E-02                                                                                                                                                                                                                                                                                                                                                                                                                                                                                              
  7.800000E+02  1.250000E+02 -4.975000E+03  3.097837E-08  2.205231E-09  1.154006E-10 -3.089956E-08  1.036477E-10  7.462004E-12  3.904797E-13 -1.033780E-10  0.000000E+00  0.000000E+00  0.000000E+00  0.000000E+00  0.000000E+00  0.000000E+00  0.000000E+00  0.000000E+00  2.749939E-02  2.309929E-03  1.208966E-04 -2.740193E-02                                                                                                                                                                                                                                                                                                                                                                                                                                                                                              
  8.000000E+02  1.250000E+02 -4.975000E+03  3.026216E-08  2.432958E-09  1.162834E-10 -3.016398E-08  1.012756E-10  8.234351E-12  3.935321E-13 -1.009395E-10  0.000000E+00  0.000000E+00  0.000000E+00  0.000000E+00  0.000000E+00  0.000000E+00  0.000000E+00  0.000000E+00  2.692639E-02  2.549843E-03  1.219144E-04 -2.680511E-02                                                                                                                                                                                                                                                                                                                                                                                                                                                                                              
  9.350000E+02  1.250000E+02 -4.975000E+03  2.886192E-08  3.506281E-09  1.220390E-10 -2.864788E-08  9.664530E-11  1.187500E-11  4.131916E-13 -9.591209E-11  0.000000E+00  0.000000E+00  0.000000E+00  0.000000E+00  0.000000E+00  0.000000E+00  0.000000E+00  0.000000E+00  2.583803E-02  3.680764E-03  1.282046E-04 -2.557419E-02                                                                                                                                                                                                                                                                                                                                                                                                                                                                                              
  1.185000E+03  1.250000E+02 -4.975000E+03  2.460790E-08  4.458663E-09  1.332495E-10 -2.420023E-08  8.253580E-11  1.511555E-11  4.516848E-13 -8.113861E-11  0.000000E+00  0.000000E+00  0.000000E+00  0.000000E+00  0.000000E+00  0.000000E+00  0.000000E+00  0.000000E+00  2.241314E-02  4.696534E-03  1.407382E-04 -2.191510E-02                                                                                                                                                                                                                                                                                                                                                                                                                                                                                              
  1.435000E+03  1.250000E+02 -4.975000E+03  1.697545E-08  2.220852E-09  1.422055E-10 -1.682895E-08  5.705361E-11  7.534317E-12  4.828133E-13 -5.655189E-11  0.000000E+00  0.000000E+00  0.000000E+00  0.000000E+00  0.000000E+00  0.000000E+00  0.000000E+00  0.000000E+00  1.574911E-02  2.345666E-03  1.512771E-04 -1.557272E-02                                                                                                                                                                                                                                                                                                                                                                                                                                                                                              
  1.250000E+02  1.250000E+02 -4.725000E+03  3.597819E-08  7.249880E-10  4.491757E-11 -3.597086E-08  1.157499E-10  2.352579E-12  1.461026E-13 -1.157259E-10  0.000000E+00  0.000000E+00  0.000000E+00  0.000000E+00  0.000000E+00  0.000000E+00  0.000000E+00  0.000000E+00  2.028773E-02  6.083178E-04  3.768912E-05 -2.027857E-02                                                                                                                                                                                                                                                                                                                                                                                                                                                                                              
  3.750000E+02  1.250000E+02 -4.725000E+03  4.490762E-08  1.182420E-09  4.294085E-11 -4.489203E-08  1.443663E-10  3.831962E-12  1.390413E-13 -1.443154E-10  0.000000E+00  0.000000E+00  0.000000E+00  0.000000E+00  0.000000E+00  0.000000E+00  0.000000E+00  0.000000E+00  2.554206E-02  9.803048E-04  3.491978E-05 -2.552322E-02                                                                                                                                                                                                                                                                                                                                                                                                                                                                                              
  6.250000E+02  1.250000E+02 -4.725000E+03  4.927290E-08  4.725341E-10  4.312973E-11 -4.927062E-08  1.582673E-10  1.528179E-12  1.393346E-13 -1.582599E-10  0.000000E+00  0.000000E+00  0.000000E+00  0.000000E+00  0.000000E+00  0.000000E+00  0.000000E+00  0.000000E+00  2.793322E-02  3.840679E-04  3.450229E-05 -2.793055E-02                                                                                                                                                                                                                                                                                                                                                                                                                                                                                              
  7.600000E+02  1.250000E+02 -4.725000E+03  4.888942E-08 -1.986464E-11  4.424592E-11 -4.888939E-08  1.570764E-10 -6.421216E-14  1.429893E-13 -1.570763E-10  0.000000E+00  0.000000E+00  0.000000E+00  0.000000E+00  0.000000E+00  0.000000E+00  0.000000E+00  0.000000E+00  2.777961E-02 -1.599108E-05  3.548260E-05 -2.777958E-02                                                                                                                                                                                                                                                                                                                                                                                                                                                                                              
  7.800000E+02  1.250000E+02 -4.725000E+03  4.860863E-08 -1.167246E-10  4.444085E-11 -4.860847E-08  1.561815E-10 -3.773119E-13  1.436412E-13 -1.561809E-10  0.000000E+00  0.000000E+00  0.000000E+00  0.000000E+00  0.000000E+00  0.000000E+00  0.000000E+00  0.000000E+00  2.762114E-02 -9.389015E-05  3.567830E-05 -2.762096E-02                                                                                                                                                                                                                                                                                                                                                                                                                                                                                              
  8.000000E+02  1.250000E+02 -4.725000E+03  4.781726E-08 -1.936398E-10  4.470128E-11 -4.781685E-08  1.536462E-10 -6.262362E-13  1.445380E-13 -1.536449E-10  0.000000E+00  0.000000E+00  0.000000E+00  0.000000E+00  0.000000E+00  0.000000E+00  0.000000E+00  0.000000E+00  2.714820E-02 -1.565422E-04  3.598609E-05 -2.714772E-02                                                                                                                                                                                                                                                                                                                                                                                                                                                                                              
  9.350000E+02  1.250000E+02 -4.725000E+03  4.606523E-08 -4.713456E-10  4.605445E-11 -4.606279E-08  1.480718E-10 -1.527254E-12  1.490644E-13 -1.480639E-10  0.000000E+00  0.000000E+00  0.000000E+00  0.000000E+00  0.000000E+00  0.000000E+00  0.000000E+00  0.000000E+00  2.618363E-02 -3.890756E-04  3.734522E-05 -2.618071E-02                                                                                                                                                                                                                                                                                                                                                                                                                                                                                              
  1.185000E+03  1.250000E+02 -4.725000E+03  4.051231E-08 -9.676790E-10  4.851947E-11 -4.050072E-08  1.303948E-10 -3.145042E-12  1.575683E-13 -1.303567E-10  0.000000E+00  0.000000E+00  0.000000E+00  0.000000E+00  0.000000E+00  0.000000E+00  0.000000E+00  0.000000E+00  2.315089E-02 -8.196199E-04  4.027069E-05 -2.313634E-02                                                                                                                                                                                                                                                                                                                                                                                                                                                                                              