Title="TOUGHREACT V3.30-OMP flowvector.tec: Liq & Gas Fluxes (kg/s/m^2), Pore Velocities (m/s), & Heat Fluxes (J/s/m2)"                                                                                                                                                                                                                                                                                                                                                                                                                                                                                                                                                                                                                                                                                                         
Variables= "X(m)"     "Y(m)"      "Z(m)"     "FluxLiq"   "FluxLiq_X"   "FluxLiq_Y"   "FluxLiq_Z"   "PorVelLiq"  "PorVelLiqX"  "PorVelLiqY"  "PorVelLiqZ"     "FluxGas"   "FluxGas_X"   "FluxGas_Y"   "FluxGas_Z"   "PorVelGas"  "PorVelGasX"  "PorVelGasY"  "PorVelGasZ"    "HeatFlux"  "HeatFlux_X"  "HeatFlux_Y"  "HeatFlux_Z"                                                                                                                                                                                                                                                                                                                                                                                                                                                                                                
Zone T= "1.33000000E+10 sec" I=     9 J=    10 K=    23 F=Point
  1.250000E+02  1.250000E+02 -5.425000E+03  1.891467E-07  1.990234E-09 -9.443131E-10 -1.891339E-07  7.051832E-10  7.471007E-12 -3.544686E-12 -7.051347E-10  0.000000E+00  0.000000E+00  0.000000E+00  0.000000E+00  0.000000E+00  0.000000E+00  0.000000E+00  0.000000E+00  2.132923E-01  2.354736E-03 -1.117265E-03 -2.132764E-01                                                                                                                                                                                                                                                                                                                                                                                                                                                                                              
  3.750000E+02  1.250000E+02 -5.425000E+03  1.870169E-07  2.421628E-09 -9.837029E-10 -1.869987E-07  6.972657E-10  9.090473E-12 -3.692765E-12 -6.971967E-10  0.000000E+00  0.000000E+00  0.000000E+00  0.000000E+00  0.000000E+00  0.000000E+00  0.000000E+00  0.000000E+00  2.108811E-01  2.865237E-03 -1.164095E-03 -2.108584E-01                                                                                                                                                                                                                                                                                                                                                                                                                                                                                              
  6.250000E+02  1.250000E+02 -5.425000E+03  1.855230E-07 -3.124560E-09 -1.053293E-09 -1.854937E-07  6.917245E-10 -1.172989E-11 -3.954181E-12 -6.916137E-10  0.000000E+00  0.000000E+00  0.000000E+00  0.000000E+00  0.000000E+00  0.000000E+00  0.000000E+00  0.000000E+00  2.092208E-01 -3.698077E-03 -1.246646E-03 -2.091844E-01                                                                                                                                                                                                                                                                                                                                                                                                                                                                                              
  7.600000E+02  1.250000E+02 -5.425000E+03  1.858668E-07 -7.393764E-09 -1.100376E-09 -1.857164E-07  6.930027E-10 -2.775674E-11 -4.130876E-12 -6.924343E-10  0.000000E+00  0.000000E+00  0.000000E+00  0.000000E+00  0.000000E+00  0.000000E+00  0.000000E+00  0.000000E+00  2.096164E-01 -8.750720E-03 -1.302333E-03 -2.094296E-01                                                                                                                                                                                                                                                                                                                                                                                                                                                                                              
  7.800000E+02  1.250000E+02 -5.425000E+03  1.859306E-07 -7.950852E-09 -1.107403E-09 -1.857572E-07  6.932416E-10 -2.984796E-11 -4.157246E-12 -6.925863E-10  0.000000E+00  0.000000E+00  0.000000E+00  0.000000E+00  0.000000E+00  0.000000E+00  0.000000E+00  0.000000E+00  2.096933E-01 -9.409998E-03 -1.310643E-03 -2.094780E-01                                                                                                                                                                                                                                                                                                                                                                                                                                                                                              
  8.000000E+02  1.250000E+02 -5.425000E+03  1.859994E-07 -8.494051E-09 -1.114473E-09 -1.858020E-07  6.935016E-10 -3.188690E-11 -4.183775E-12 -6.927555E-10  0.000000E+00  0.000000E+00  0.000000E+00  0.000000E+00  0.000000E+00  0.000000E+00  0.000000E+00  0.000000E+00  2.097824E-01 -1.005261E-02 -1.319002E-03 -2.095372E-01                                                                                                                                                                                                                                                                                                                                                                                                                                                                                              
  9.350000E+02  1.250000E+02 -5.425000E+03  1.865785E-07 -1.128735E-08 -1.162416E-09 -1.862331E-07  6.956623E-10 -4.237130E-11 -4.363665E-12 -6.943570E-10  0.000000E+00  0.000000E+00  0.000000E+00  0.000000E+00  0.000000E+00  0.000000E+00  0.000000E+00  0.000000E+00  2.104632E-01 -1.335642E-02 -1.375678E-03 -2.100344E-01                                                                                                                                                                                                                                                                                                                                                                                                                                                                                              
  1.185000E+03  1.250000E+02 -5.425000E+03  1.888177E-07 -1.249171E-08 -1.246101E-09 -1.884000E-07  7.039705E-10 -4.688979E-11 -4.677448E-12 -7.023916E-10  0.000000E+00  0.000000E+00  0.000000E+00  0.000000E+00  0.000000E+00  0.000000E+00  0.000000E+00  0.000000E+00  2.129833E-01 -1.477908E-02 -1.474408E-03 -2.124648E-01                                                                                                                                                                                                                                                                                                                                                                                                                                                                                              
  1.435000E+03  1.250000E+02 -5.425000E+03  1.909410E-07 -5.585369E-09 -1.299292E-09 -1.908548E-07  7.118368E-10 -2.096481E-11 -4.876767E-12 -7.115113E-10  0.000000E+00  0.000000E+00  0.000000E+00  0.000000E+00  0.000000E+00  0.000000E+00  0.000000E+00  0.000000E+00  2.153468E-01 -6.607411E-03 -1.537049E-03 -2.152400E-01                                                                                                                                                                                                                                                                                                                                                                                                                                                                                              
  1.250000E+02  1.250000E+02 -5.225000E+03  7.032727E-07  3.608428E-09 -8.684431E-10 -7.032629E-07  2.592159E-09  1.337239E-11 -3.218356E-12 -2.592123E-09  0.000000E+00  0.000000E+00  0.000000E+00  0.000000E+00  0.000000E+00  0.000000E+00  0.000000E+00  0.000000E+00  7.548819E-01  4.069035E-03 -9.793058E-04 -7.548703E-01                                                                                                                                                                                                                                                                                                                                                                                                                                                                                              
  3.750000E+02  1.250000E+02 -5.225000E+03  6.936359E-07  5.166765E-09 -9.104517E-10 -6.936160E-07  2.555549E-09  1.914751E-11 -3.374032E-12 -2.555475E-09  0.000000E+00  0.000000E+00  0.000000E+00  0.000000E+00  0.000000E+00  0.000000E+00  0.000000E+00  0.000000E+00  7.414763E-01  5.826206E-03 -1.026628E-03 -7.414527E-01                                                                                                                                                                                                                                                                                                                                                                                                                                                                                              
  6.250000E+02  1.250000E+02 -5.225000E+03  6.873932E-07 -2.221171E-09 -9.812329E-10 -6.873889E-07  2.532074E-09 -8.231667E-12 -3.636458E-12 -2.532058E-09  0.000000E+00  0.000000E+00  0.000000E+00  0.000000E+00  0.000000E+00  0.000000E+00  0.000000E+00  0.000000E+00  7.333473E-01 -2.504925E-03 -1.106563E-03 -7.333422E-01                                                                                                                                                                                                                                                                                                                                                                                                                                                                                              
  7.600000E+02  1.250000E+02 -5.225000E+03  6.882378E-07 -7.948015E-09 -1.028381E-09 -6.881912E-07  2.535248E-09 -2.945513E-11 -3.811136E-12 -2.535074E-09  0.000000E+00  0.000000E+00  0.000000E+00  0.000000E+00  0.000000E+00  0.000000E+00  0.000000E+00  0.000000E+00  7.344854E-01 -8.962911E-03 -1.159700E-03 -7.344298E-01                                                                                                                                                                                                                                                                                                                                                                                                                                                                                              
  7.800000E+02  1.250000E+02 -5.225000E+03  6.884156E-07 -8.716933E-09 -1.035427E-09 -6.883596E-07  2.535952E-09 -3.230475E-11 -3.837256E-12 -2.535743E-09  0.000000E+00  0.000000E+00  0.000000E+00  0.000000E+00  0.000000E+00  0.000000E+00  0.000000E+00  0.000000E+00  7.348077E-01 -9.830279E-03 -1.167659E-03 -7.347410E-01                                                                                                                                                                                                                                                                                                                                                                                                                                                                                              
  8.000000E+02  1.250000E+02 -5.225000E+03  6.886415E-07 -9.463018E-09 -1.042535E-09 -6.885757E-07  2.536921E-09 -3.506990E-11 -3.863634E-12 -2.536675E-09  0.000000E+00  0.000000E+00  0.000000E+00  0.000000E+00  0.000000E+00  0.000000E+00  0.000000E+00  0.000000E+00  7.353897E-01 -1.067216E-02 -1.175724E-03 -7.353113E-01                                                                                                                                                                                                                                                                                                                                                                                                                                                                                              
  9.350000E+02  1.250000E+02 -5.225000E+03  6.904572E-07 -1.332882E-08 -1.090634E-09 -6.903276E-07  2.543934E-09 -4.939585E-11 -4.041909E-12 -2.543451E-09  0.000000E+00  0.000000E+00  0.000000E+00  0.000000E+00  0.000000E+00  0.000000E+00  0.000000E+00  0.000000E+00  7.382269E-01 -1.503170E-02 -1.230032E-03 -7.380729E-01                                                                                                                                                                                                                                                                                                                                                                                                                                                                                              
  1.185000E+03  1.250000E+02 -5.225000E+03  6.989044E-07 -1.579321E-08 -1.176493E-09 -6.987250E-07  2.575796E-09 -5.852742E-11 -4.359920E-12 -2.575128E-09  0.000000E+00  0.000000E+00  0.000000E+00  0.000000E+00  0.000000E+00  0.000000E+00  0.000000E+00  0.000000E+00  7.495410E-01 -1.781078E-02 -1.326781E-03 -7.493281E-01                                                                                                                                                                                                                                                                                                                                                                                                                                                                                              
  1.435000E+03  1.250000E+02 -5.225000E+03  7.095438E-07 -7.378981E-09 -1.233680E-09 -7.095043E-07  2.616046E-09 -2.734507E-11 -4.571775E-12 -2.615899E-09  0.000000E+00  0.000000E+00  0.000000E+00  0.000000E+00  0.000000E+00  0.000000E+00  0.000000E+00  0.000000E+00  7.639713E-01 -8.321778E-03 -1.391316E-03 -7.639248E-01                                                                                                                                                                                                                                                                                                                                                                                                                                                                                              
  1.250000E+02  1.250000E+02 -4.975000E+03  1.366694E-06  1.079716E-08 -6.443563E-10 -1.366652E-06  4.925809E-09  3.929104E-11 -2.346409E-12 -4.925651E-09  0.000000E+00  0.000000E+00  0.000000E+00  0.000000E+00  0.000000E+00  0.000000E+00  0.000000E+00  0.000000E+00  1.279284E+00  1.137394E-02 -6.787845E-04 -1.279233E+00                                                                                                                                                                                                                                                                                                                                                                                                                                                                                              
  3.750000E+02  1.250000E+02 -4.975000E+03  1.337872E-06  1.687204E-08 -6.972549E-10 -1.337766E-06  4.811770E-09  6.137707E-11 -2.535796E-12 -4.811378E-09  0.000000E+00  0.000000E+00  0.000000E+00  0.000000E+00  0.000000E+00  0.000000E+00  0.000000E+00  0.000000E+00  1.226519E+00  1.773634E-02 -7.302725E-04 -1.226390E+00                                                                                                                                                                                                                                                                                                                                                                                                                                                                                              
  6.250000E+02  1.250000E+02 -4.975000E+03  1.323131E-06  1.429776E-09 -7.721180E-10 -1.323130E-06  4.753708E-09  5.202338E-12 -2.806325E-12 -4.753705E-09  0.000000E+00  0.000000E+00  0.000000E+00  0.000000E+00  0.000000E+00  0.000000E+00  0.000000E+00  0.000000E+00  1.199892E+00  1.509049E-03 -8.063946E-04 -1.199891E+00                                                                                                                                                                                                                                                                                                                                                                                                                                                                                              
  7.600000E+02  1.250000E+02 -4.975000E+03  1.324008E-06 -1.015399E-08 -8.198792E-10 -1.323968E-06  4.757658E-09 -3.690850E-11 -2.980196E-12 -4.757514E-09  0.000000E+00  0.000000E+00  0.000000E+00  0.000000E+00  0.000000E+00  0.000000E+00  0.000000E+00  0.000000E+00  1.202753E+00 -1.061060E-02 -8.566654E-04 -1.202706E+00                                                                                                                                                                                                                                                                                                                                                                                                                                                                                              
  7.800000E+02  1.250000E+02 -4.975000E+03  1.324570E-06 -1.185230E-08 -8.271110E-10 -1.324517E-06  4.760050E-09 -4.308539E-11 -3.006645E-12 -4.759854E-09  0.000000E+00  0.000000E+00  0.000000E+00  0.000000E+00  0.000000E+00  0.000000E+00  0.000000E+00  0.000000E+00  1.204168E+00 -1.239087E-02 -8.644355E-04 -1.204104E+00                                                                                                                                                                                                                                                                                                                                                                                                                                                                                              
  8.000000E+02  1.250000E+02 -4.975000E+03  1.326033E-06 -1.342105E-08 -8.345937E-10 -1.325964E-06  4.766225E-09 -4.879655E-11 -3.034272E-12 -4.765974E-09  0.000000E+00  0.000000E+00  0.000000E+00  0.000000E+00  0.000000E+00  0.000000E+00  0.000000E+00  0.000000E+00  1.207715E+00 -1.404742E-02 -8.728086E-04 -1.207633E+00                                                                                                                                                                                                                                                                                                                                                                                                                                                                                              
  9.350000E+02  1.250000E+02 -4.975000E+03  1.330392E-06 -2.124324E-08 -8.840276E-10 -1.330222E-06  4.784410E-09 -7.727752E-11 -3.215167E-12 -4.783785E-09  0.000000E+00  0.000000E+00  0.000000E+00  0.000000E+00  0.000000E+00  0.000000E+00  0.000000E+00  0.000000E+00  1.217812E+00 -2.231607E-02 -9.260563E-04 -1.217607E+00                                                                                                                                                                                                                                                                                                                                                                                                                                                                                              
  1.185000E+03  1.250000E+02 -4.975000E+03  1.347377E-06 -2.944958E-08 -9.813500E-10 -1.347054E-06  4.853186E-09 -1.072118E-10 -3.572429E-12 -4.852000E-09  0.000000E+00  0.000000E+00  0.000000E+00  0.000000E+00  0.000000E+00  0.000000E+00  0.000000E+00  0.000000E+00  1.252944E+00 -3.107133E-02 -1.032432E-03 -1.252558E+00                                                                                                                                                                                                                                                                                                                                                                                                                                                                                              
  1.435000E+03  1.250000E+02 -4.975000E+03  1.378146E-06 -1.528397E-08 -1.061366E-09 -1.378061E-06  4.974811E-09 -5.567026E-11 -3.868467E-12 -4.974498E-09  0.000000E+00  0.000000E+00  0.000000E+00  0.000000E+00  0.000000E+00  0.000000E+00  0.000000E+00  0.000000E+00  1.309117E+00 -1.616907E-02 -1.122890E-03 -1.309016E+00                                                                                                                                                                                                                                                                                                                                                                                                                                                                                              
  1.250000E+02  1.250000E+02 -4.725000E+03  2.068359E-06  1.480200E-08 -2.505937E-10 -2.068306E-06  7.135811E-09  5.162103E-11 -8.762998E-13 -7.135624E-09  0.000000E+00  0.000000E+00  0.000000E+00  0.000000E+00  0.000000E+00  0.000000E+00  0.000000E+00  0.000000E+00  1.253440E+00  1.280733E-02 -2.168176E-04 -1.253374E+00                                                                                                                                                                                                                                                                                                                                                                                                                                                                                              
  3.750000E+02  1.250000E+02 -4.725000E+03  2.000638E-06  2.111516E-08 -2.958537E-10 -2.000527E-06  6.879634E-09  7.355410E-11 -1.029249E-12 -6.879241E-09  0.000000E+00  0.000000E+00  0.000000E+00  0.000000E+00  0.000000E+00  0.000000E+00  0.000000E+00  0.000000E+00  1.170528E+00  1.809239E-02 -2.476842E-04 -1.170388E+00                                                                                                                                                                                                                                                                                                                                                                                                                                                                                              
  6.250000E+02  1.250000E+02 -4.725000E+03  1.980234E-06  4.424920E-09 -3.353599E-10 -1.980229E-06  6.798280E-09  1.537984E-11 -1.163674E-12 -6.798262E-09  0.000000E+00  0.000000E+00  0.000000E+00  0.000000E+00  0.000000E+00  0.000000E+00  0.000000E+00  0.000000E+00  1.139995E+00  3.727325E-03 -2.759679E-04 -1.139988E+00                                                                                                                                                                                                                                                                                                                                                                                                                                                                                              
  7.600000E+02  1.250000E+02 -4.725000E+03  1.979257E-06 -4.556371E-09 -3.616789E-10 -1.979252E-06  6.796524E-09 -1.581572E-11 -1.255484E-12 -6.796505E-09  0.000000E+00  0.000000E+00  0.000000E+00  0.000000E+00  0.000000E+00  0.000000E+00  0.000000E+00  0.000000E+00  1.141538E+00 -3.761415E-03 -2.984063E-04 -1.141531E+00                                                                                                                                                                                                                                                                                                                                                                                                                                                                                              
  7.800000E+02  1.250000E+02 -4.725000E+03  1.979540E-06 -6.164822E-09 -3.659430E-10 -1.979530E-06  6.798240E-09 -2.140499E-11 -1.270506E-12 -6.798206E-09  0.000000E+00  0.000000E+00  0.000000E+00  0.000000E+00  0.000000E+00  0.000000E+00  0.000000E+00  0.000000E+00  1.142708E+00 -5.100031E-03 -3.022764E-04 -1.142697E+00                                                                                                                                                                                                                                                                                                                                                                                                                                                                                              
  8.000000E+02  1.250000E+02 -4.725000E+03  1.980420E-06 -7.966395E-09 -3.708814E-10 -1.980404E-06  6.803146E-09 -2.767589E-11 -1.288211E-12 -6.803089E-09  0.000000E+00  0.000000E+00  0.000000E+00  0.000000E+00  0.000000E+00  0.000000E+00  0.000000E+00  0.000000E+00  1.145707E+00 -6.627217E-03 -3.072443E-04 -1.145688E+00                                                                                                                                                                                                                                                                                                                                                                                                                                                                                              
  9.350000E+02  1.250000E+02 -4.725000E+03  1.992491E-06 -1.531676E-08 -4.017978E-10 -1.992432E-06  6.849493E-09 -5.332028E-11 -1.397213E-12 -6.849286E-09  0.000000E+00  0.000000E+00  0.000000E+00  0.000000E+00  0.000000E+00  0.000000E+00  0.000000E+00  0.000000E+00  1.161171E+00 -1.300887E-02 -3.354282E-04 -1.161098E+00                                                                                                                                                                                                                                                                                                                                                                                                                                                                                              
  1.185000E+03  1.250000E+02 -4.725000E+03  2.011423E-06 -3.137373E-08 -4.854317E-10 -2.011178E-06  6.931012E-09 -1.096212E-10 -1.694432E-12 -6.930145E-09  0.000000E+00  0.000000E+00  0.000000E+00  0.000000E+00  0.000000E+00  0.000000E+00  0.000000E+00  0.000000E+00  1.198144E+00 -2.743819E-02 -4.152939E-04 -1.197830E+00                                                                                                                                                                                                                                                                                                                                                                                                                                                                                              