Title="TOUGHREACT V3.30-OMP flowvector.tec: Liq & Gas Fluxes (kg/s/m^2), Pore Velocities (m/s), & Heat Fluxes (J/s/m2)"                                                                                                                                                                                                                                                                                                                                                                                                                                                                                                                                                                                                                                                                                                         
Variables= "X(m)"     "Y(m)"      "Z(m)"     "FluxLiq"   "FluxLiq_X"   "FluxLiq_Y"   "FluxLiq_Z"   "PorVelLiq"  "PorVelLiqX"  "PorVelLiqY"  "PorVelLiqZ"     "FluxGas"   "FluxGas_X"   "FluxGas_Y"   "FluxGas_Z"   "PorVelGas"  "PorVelGasX"  "PorVelGasY"  "PorVelGasZ"    "HeatFlux"  "HeatFlux_X"  "HeatFlux_Y"  "HeatFlux_Z"                                                                                                                                                                                                                                                                                                                                                                                                                                                                                                
Zone T= "3.00000000E+09 sec" I=     9 J=    10 K=    23 F=Point
  1.250000E+02  1.250000E+02 -5.425000E+03  8.364637E-07  4.015100E-08 -7.303942E-09 -8.354676E-07  3.932788E-09  1.902013E-10 -3.459833E-11 -3.928033E-09  0.000000E+00  0.000000E+00  0.000000E+00  0.000000E+00  0.000000E+00  0.000000E+00  0.000000E+00  0.000000E+00  9.019308E-01  4.501376E-02 -8.188578E-03 -9.007696E-01                                                                                                                                                                                                                                                                                                                                                                                                                                                                                              
  3.750000E+02  1.250000E+02 -5.425000E+03  7.970905E-07  5.299106E-08 -7.672734E-09 -7.952901E-07  3.748638E-09  2.510350E-10 -3.635057E-11 -3.740046E-09  0.000000E+00  0.000000E+00  0.000000E+00  0.000000E+00  0.000000E+00  0.000000E+00  0.000000E+00  0.000000E+00  8.596915E-01  5.941021E-02 -8.602817E-03 -8.575931E-01                                                                                                                                                                                                                                                                                                                                                                                                                                                                                              
  6.250000E+02  1.250000E+02 -5.425000E+03  7.686374E-07 -4.845968E-08 -8.276972E-09 -7.670636E-07  3.615318E-09 -2.295804E-10 -3.921573E-11 -3.607808E-09  0.000000E+00  0.000000E+00  0.000000E+00  0.000000E+00  0.000000E+00  0.000000E+00  0.000000E+00  0.000000E+00  8.291465E-01 -5.433959E-02 -9.281155E-03 -8.273119E-01                                                                                                                                                                                                                                                                                                                                                                                                                                                                                              
  7.600000E+02  1.250000E+02 -5.425000E+03  7.812833E-07 -1.279636E-07 -8.638547E-09 -7.706843E-07  3.675010E-09 -6.062334E-10 -4.092469E-11 -3.624432E-09  0.000000E+00  0.000000E+00  0.000000E+00  0.000000E+00  0.000000E+00  0.000000E+00  0.000000E+00  0.000000E+00  8.435382E-01 -1.434868E-01 -9.686546E-03 -8.311885E-01                                                                                                                                                                                                                                                                                                                                                                                                                                                                                              
  7.800000E+02  1.250000E+02 -5.425000E+03  7.838368E-07 -1.385777E-07 -8.691999E-09 -7.714408E-07  3.687075E-09 -6.565043E-10 -4.117724E-11 -3.627923E-09  0.000000E+00  0.000000E+00  0.000000E+00  0.000000E+00  0.000000E+00  0.000000E+00  0.000000E+00  0.000000E+00  8.464440E-01 -1.553883E-01 -9.746469E-03 -8.320017E-01                                                                                                                                                                                                                                                                                                                                                                                                                                                                                              
  8.000000E+02  1.250000E+02 -5.425000E+03  7.866910E-07 -1.489339E-07 -8.745260E-09 -7.724150E-07  3.700547E-09 -7.055180E-10 -4.142882E-11 -3.632434E-09  0.000000E+00  0.000000E+00  0.000000E+00  0.000000E+00  0.000000E+00  0.000000E+00  0.000000E+00  0.000000E+00  8.496828E-01 -1.669994E-01 -9.806177E-03 -8.330522E-01                                                                                                                                                                                                                                                                                                                                                                                                                                                                                              
  9.350000E+02  1.250000E+02 -5.425000E+03  8.065145E-07 -2.032931E-07 -9.102979E-09 -7.804196E-07  3.793972E-09 -9.627528E-10 -4.311784E-11 -3.669533E-09  0.000000E+00  0.000000E+00  0.000000E+00  0.000000E+00  0.000000E+00  0.000000E+00  0.000000E+00  0.000000E+00  8.720373E-01 -2.279427E-01 -1.020714E-02 -8.416572E-01                                                                                                                                                                                                                                                                                                                                                                                                                                                                                              
  1.185000E+03  1.250000E+02 -5.425000E+03  8.541347E-07 -2.272601E-07 -9.642619E-09 -8.232897E-07  4.016260E-09 -1.075953E-09 -4.565588E-11 -3.869184E-09  0.000000E+00  0.000000E+00  0.000000E+00  0.000000E+00  0.000000E+00  0.000000E+00  0.000000E+00  0.000000E+00  9.236789E-01 -2.548063E-01 -1.081164E-02 -8.877723E-01                                                                                                                                                                                                                                                                                                                                                                                                                                                                                              
  1.435000E+03  1.250000E+02 -5.425000E+03  8.734160E-07 -1.009871E-07 -9.927835E-09 -8.675013E-07  4.103485E-09 -4.780331E-10 -4.699159E-11 -4.075275E-09  0.000000E+00  0.000000E+00  0.000000E+00  0.000000E+00  0.000000E+00  0.000000E+00  0.000000E+00  0.000000E+00  9.422664E-01 -1.132254E-01 -1.113103E-02 -9.353727E-01                                                                                                                                                                                                                                                                                                                                                                                                                                                                                              
  1.250000E+02  1.250000E+02 -5.225000E+03  3.102011E-06  7.164163E-08 -6.525937E-09 -3.101177E-06  1.439344E-08  3.351030E-10 -3.052314E-11 -1.438951E-08  0.000000E+00  0.000000E+00  0.000000E+00  0.000000E+00  0.000000E+00  0.000000E+00  0.000000E+00  0.000000E+00  3.228546E+00  7.724130E-02 -7.036061E-03 -3.227614E+00                                                                                                                                                                                                                                                                                                                                                                                                                                                                                              
  3.750000E+02  1.250000E+02 -5.225000E+03  2.916080E-06  1.069081E-07 -6.963039E-09 -2.914112E-06  1.353645E-08  5.001036E-10 -3.257606E-11 -1.352717E-08  0.000000E+00  0.000000E+00  0.000000E+00  0.000000E+00  0.000000E+00  0.000000E+00  0.000000E+00  0.000000E+00  3.031313E+00  1.152705E-01 -7.508571E-03 -3.029111E+00                                                                                                                                                                                                                                                                                                                                                                                                                                                                                              
  6.250000E+02  1.250000E+02 -5.225000E+03  2.793829E-06 -3.020561E-08 -7.647765E-09 -2.793655E-06  1.297219E-08 -1.413288E-10 -3.578511E-11 -1.297137E-08  0.000000E+00  0.000000E+00  0.000000E+00  0.000000E+00  0.000000E+00  0.000000E+00  0.000000E+00  0.000000E+00  2.902320E+00 -3.258287E-02 -8.248503E-03 -2.902125E+00                                                                                                                                                                                                                                                                                                                                                                                                                                                                                              
  7.600000E+02  1.250000E+02 -5.225000E+03  2.810517E-06 -1.384095E-07 -8.042940E-09 -2.807095E-06  1.304831E-08 -6.475767E-10 -3.762978E-11 -1.303217E-08  0.000000E+00  0.000000E+00  0.000000E+00  0.000000E+00  0.000000E+00  0.000000E+00  0.000000E+00  0.000000E+00  2.920099E+00 -1.492754E-01 -8.674423E-03 -2.916268E+00                                                                                                                                                                                                                                                                                                                                                                                                                                                                                              
  7.800000E+02  1.250000E+02 -5.225000E+03  2.814303E-06 -1.532028E-07 -8.101292E-09 -2.810118E-06  1.306575E-08 -7.167719E-10 -3.790207E-11 -1.304602E-08  0.000000E+00  0.000000E+00  0.000000E+00  0.000000E+00  0.000000E+00  0.000000E+00  0.000000E+00  0.000000E+00  2.924287E+00 -1.652297E-01 -8.737328E-03 -2.919602E+00                                                                                                                                                                                                                                                                                                                                                                                                                                                                                              
  8.000000E+02  1.250000E+02 -5.225000E+03  2.819247E-06 -1.676649E-07 -8.159387E-09 -2.814245E-06  1.308870E-08 -7.843713E-10 -3.817312E-11 -1.306512E-08  0.000000E+00  0.000000E+00  0.000000E+00  0.000000E+00  0.000000E+00  0.000000E+00  0.000000E+00  0.000000E+00  2.930002E+00 -1.808240E-01 -8.799981E-03 -2.924403E+00                                                                                                                                                                                                                                                                                                                                                                                                                                                                                              
  9.350000E+02  1.250000E+02 -5.225000E+03  2.857614E-06 -2.456109E-07 -8.549061E-09 -2.847027E-06  1.326544E-08 -1.148596E-09 -3.999005E-11 -1.321556E-08  0.000000E+00  0.000000E+00  0.000000E+00  0.000000E+00  0.000000E+00  0.000000E+00  0.000000E+00  0.000000E+00  2.971920E+00 -2.648605E-01 -9.219943E-03 -2.960080E+00                                                                                                                                                                                                                                                                                                                                                                                                                                                                                              
  1.185000E+03  1.250000E+02 -5.225000E+03  3.037302E-06 -2.927267E-07 -9.137710E-09 -3.023149E-06  1.409047E-08 -1.368425E-09 -4.272146E-11 -1.402380E-08  0.000000E+00  0.000000E+00  0.000000E+00  0.000000E+00  0.000000E+00  0.000000E+00  0.000000E+00  0.000000E+00  3.162035E+00 -3.156425E-01 -9.853468E-03 -3.146226E+00                                                                                                                                                                                                                                                                                                                                                                                                                                                                                              
  1.435000E+03  1.250000E+02 -5.225000E+03  3.222599E-06 -1.345154E-07 -9.432324E-09 -3.219777E-06  1.493968E-08 -6.286757E-10 -4.407991E-11 -1.492638E-08  0.000000E+00  0.000000E+00  0.000000E+00  0.000000E+00  0.000000E+00  0.000000E+00  0.000000E+00  0.000000E+00  3.357235E+00 -1.450396E-01 -1.017036E-02 -3.354085E+00                                                                                                                                                                                                                                                                                                                                                                                                                                                                                              
  1.250000E+02  1.250000E+02 -4.975000E+03  6.097249E-06  2.152657E-07 -4.173114E-09 -6.093446E-06  2.767861E-08  9.874314E-10 -1.914590E-11 -2.766098E-08  0.000000E+00  0.000000E+00  0.000000E+00  0.000000E+00  0.000000E+00  0.000000E+00  0.000000E+00  0.000000E+00  5.955331E+00  2.210741E-01 -4.285728E-03 -5.951224E+00                                                                                                                                                                                                                                                                                                                                                                                                                                                                                              
  3.750000E+02  1.250000E+02 -4.975000E+03  5.517192E-06  3.412355E-07 -4.895488E-09 -5.506627E-06  2.502424E-08  1.565407E-09 -2.246345E-11 -2.497522E-08  0.000000E+00  0.000000E+00  0.000000E+00  0.000000E+00  0.000000E+00  0.000000E+00  0.000000E+00  0.000000E+00  5.276607E+00  3.501768E-01 -5.017276E-03 -5.264973E+00                                                                                                                                                                                                                                                                                                                                                                                                                                                                                              
  6.250000E+02  1.250000E+02 -4.975000E+03  5.210035E-06  4.430433E-08 -5.885937E-09 -5.209843E-06  2.361900E-08  2.032342E-10 -2.701161E-11 -2.361811E-08  0.000000E+00  0.000000E+00  0.000000E+00  0.000000E+00  0.000000E+00  0.000000E+00  0.000000E+00  0.000000E+00  4.925938E+00  4.548553E-02 -6.026048E-03 -4.925724E+00                                                                                                                                                                                                                                                                                                                                                                                                                                                                                              
  7.600000E+02  1.250000E+02 -4.975000E+03  5.233660E-06 -1.796588E-07 -6.395891E-09 -5.230572E-06  2.372740E-08 -8.244023E-10 -2.934858E-11 -2.371306E-08  0.000000E+00  0.000000E+00  0.000000E+00  0.000000E+00  0.000000E+00  0.000000E+00  0.000000E+00  0.000000E+00  4.957179E+00 -1.839621E-01 -6.548813E-03 -4.953760E+00                                                                                                                                                                                                                                                                                                                                                                                                                                                                                              
  7.800000E+02  1.250000E+02 -4.975000E+03  5.242044E-06 -2.120570E-07 -6.471319E-09 -5.237749E-06  2.376681E-08 -9.730717E-10 -2.969468E-11 -2.374686E-08  0.000000E+00  0.000000E+00  0.000000E+00  0.000000E+00  0.000000E+00  0.000000E+00  0.000000E+00  0.000000E+00  4.969000E+00 -2.171750E-01 -6.626682E-03 -4.964248E+00                                                                                                                                                                                                                                                                                                                                                                                                                                                                                              
  8.000000E+02  1.250000E+02 -4.975000E+03  5.257101E-06 -2.435236E-07 -6.546887E-09 -5.251454E-06  2.383908E-08 -1.117429E-09 -3.004246E-11 -2.381286E-08  0.000000E+00  0.000000E+00  0.000000E+00  0.000000E+00  0.000000E+00  0.000000E+00  0.000000E+00  0.000000E+00  4.992498E+00 -2.495360E-01 -6.705744E-03 -4.986253E+00                                                                                                                                                                                                                                                                                                                                                                                                                                                                                              
  9.350000E+02  1.250000E+02 -4.975000E+03  5.348359E-06 -4.158903E-07 -7.049552E-09 -5.332160E-06  2.426263E-08 -1.907581E-09 -3.234850E-11 -2.418750E-08  0.000000E+00  0.000000E+00  0.000000E+00  0.000000E+00  0.000000E+00  0.000000E+00  0.000000E+00  0.000000E+00  5.110164E+00 -4.267654E-01 -7.226384E-03 -5.092308E+00                                                                                                                                                                                                                                                                                                                                                                                                                                                                                              
  1.185000E+03  1.250000E+02 -4.975000E+03  5.774310E-06 -5.691044E-07 -7.843187E-09 -5.746191E-06  2.620561E-08 -2.609267E-09 -3.597205E-11 -2.607536E-08  0.000000E+00  0.000000E+00  0.000000E+00  0.000000E+00  0.000000E+00  0.000000E+00  0.000000E+00  0.000000E+00  5.603568E+00 -5.847175E-01 -8.052200E-03 -5.572972E+00                                                                                                                                                                                                                                                                                                                                                                                                                                                                                              
  1.435000E+03  1.250000E+02 -4.975000E+03  6.324515E-06 -2.826741E-07 -8.156466E-09 -6.318189E-06  2.871360E-08 -1.295705E-09 -3.739085E-11 -2.868432E-08  0.000000E+00  0.000000E+00  0.000000E+00  0.000000E+00  0.000000E+00  0.000000E+00  0.000000E+00  0.000000E+00  6.248919E+00 -2.906579E-01 -8.386936E-03 -6.242150E+00                                                                                                                                                                                                                                                                                                                                                                                                                                                                                              
  1.250000E+02  1.250000E+02 -4.725000E+03  9.653330E-06  5.620609E-07 -3.407300E-10 -9.636953E-06  4.200972E-08  2.490929E-09 -1.515737E-12 -4.193581E-08  0.000000E+00  0.000000E+00  0.000000E+00  0.000000E+00  0.000000E+00  0.000000E+00  0.000000E+00  0.000000E+00  7.274442E+00  5.322002E-01 -3.226049E-04 -7.254948E+00                                                                                                                                                                                                                                                                                                                                                                                                                                                                                              
  3.750000E+02  1.250000E+02 -4.725000E+03  7.991889E-06  8.409415E-07 -1.562357E-09 -7.947522E-06  3.447712E-08  3.721999E-09 -6.909968E-12 -3.427562E-08  0.000000E+00  0.000000E+00  0.000000E+00  0.000000E+00  0.000000E+00  0.000000E+00  0.000000E+00  0.000000E+00  5.190014E+00  7.868502E-01 -1.426587E-03 -5.130021E+00                                                                                                                                                                                                                                                                                                                                                                                                                                                                                              
  6.250000E+02  1.250000E+02 -4.725000E+03  7.474316E-06  1.959941E-07 -2.947693E-09 -7.471745E-06  3.213462E-08  8.655113E-10 -1.299862E-11 -3.212296E-08  0.000000E+00  0.000000E+00  0.000000E+00  0.000000E+00  0.000000E+00  0.000000E+00  0.000000E+00  0.000000E+00  4.581406E+00  1.802095E-01 -2.640020E-03 -4.577859E+00                                                                                                                                                                                                                                                                                                                                                                                                                                                                                              
  7.600000E+02  1.250000E+02 -4.725000E+03  7.449046E-06 -1.982133E-07 -3.511607E-09 -7.446408E-06  3.203956E-08 -8.743752E-10 -1.549154E-11 -3.202763E-08  0.000000E+00  0.000000E+00  0.000000E+00  0.000000E+00  0.000000E+00  0.000000E+00  0.000000E+00  0.000000E+00  4.585750E+00 -1.781438E-01 -3.153906E-03 -4.582288E+00                                                                                                                                                                                                                                                                                                                                                                                                                                                                                              
  7.800000E+02  1.250000E+02 -4.725000E+03  7.452036E-06 -2.637412E-07 -3.598142E-09 -7.447366E-06  3.205825E-08 -1.163861E-09 -1.587668E-11 -3.203712E-08  0.000000E+00  0.000000E+00  0.000000E+00  0.000000E+00  0.000000E+00  0.000000E+00  0.000000E+00  0.000000E+00  4.596406E+00 -2.375649E-01 -3.235635E-03 -4.590262E+00                                                                                                                                                                                                                                                                                                                                                                                                                                                                                              
  8.000000E+02  1.250000E+02 -4.725000E+03  7.459768E-06 -3.310900E-07 -3.690610E-09 -7.452416E-06  3.210466E-08 -1.462066E-09 -1.629384E-11 -3.207135E-08  0.000000E+00  0.000000E+00  0.000000E+00  0.000000E+00  0.000000E+00  0.000000E+00  0.000000E+00  0.000000E+00  4.618268E+00 -3.002212E-01 -3.328891E-03 -4.608498E+00                                                                                                                                                                                                                                                                                                                                                                                                                                                                                              
  9.350000E+02  1.250000E+02 -4.725000E+03  7.708503E-06 -6.760942E-07 -4.296341E-09 -7.678795E-06  3.322068E-08 -2.991422E-09 -1.899860E-11 -3.308572E-08  0.000000E+00  0.000000E+00  0.000000E+00  0.000000E+00  0.000000E+00  0.000000E+00  0.000000E+00  0.000000E+00  4.891819E+00 -6.275249E-01 -3.912858E-03 -4.851401E+00                                                                                                                                                                                                                                                                                                                                                                                                                                                                                              
  1.185000E+03  1.250000E+02 -4.725000E+03  8.471007E-06 -1.112577E-06 -5.530324E-09 -8.397624E-06  3.669630E-08 -4.936706E-09 -2.454759E-11 -3.636271E-08  0.000000E+00  0.000000E+00  0.000000E+00  0.000000E+00  0.000000E+00  0.000000E+00  0.000000E+00  0.000000E+00  5.875118E+00 -1.058080E+00 -5.169352E-03 -5.779053E+00                                                                                                                                                                                                                                                                                                                                                                                                                                                                                              