Title="TOUGHREACT V3.30-OMP flowvector.tec: Liq & Gas Fluxes (kg/s/m^2), Pore Velocities (m/s), & Heat Fluxes (J/s/m2)"                                                                                                                                                                                                                                                                                                                                                                                                                                                                                                                                                                                                                                                                                                         
Variables= "X(m)"     "Y(m)"      "Z(m)"     "FluxLiq"   "FluxLiq_X"   "FluxLiq_Y"   "FluxLiq_Z"   "PorVelLiq"  "PorVelLiqX"  "PorVelLiqY"  "PorVelLiqZ"     "FluxGas"   "FluxGas_X"   "FluxGas_Y"   "FluxGas_Z"   "PorVelGas"  "PorVelGasX"  "PorVelGasY"  "PorVelGasZ"    "HeatFlux"  "HeatFlux_X"  "HeatFlux_Y"  "HeatFlux_Z"                                                                                                                                                                                                                                                                                                                                                                                                                                                                                                
Zone T= "2.00000000E+10 sec" I=     9 J=    10 K=    23 F=Point
  1.250000E+02  1.250000E+02 -5.425000E+03  7.165894E-08  1.450958E-10 -1.091611E-10 -7.165871E-08  2.567432E-10  5.235962E-13 -3.939104E-13 -2.567423E-10  0.000000E+00  0.000000E+00  0.000000E+00  0.000000E+00  0.000000E+00  0.000000E+00  0.000000E+00  0.000000E+00  8.147372E-02  1.739557E-04 -1.308740E-04 -8.147343E-02                                                                                                                                                                                                                                                                                                                                                                                                                                                                                              
  3.750000E+02  1.250000E+02 -5.425000E+03  7.153905E-08  2.278386E-10 -1.140465E-10 -7.153860E-08  2.563154E-10  8.221985E-13 -4.115619E-13 -2.563137E-10  0.000000E+00  0.000000E+00  0.000000E+00  0.000000E+00  0.000000E+00  0.000000E+00  0.000000E+00  0.000000E+00  8.132336E-02  2.731755E-04 -1.367578E-04 -8.132279E-02                                                                                                                                                                                                                                                                                                                                                                                                                                                                                              
  6.250000E+02  1.250000E+02 -5.425000E+03  7.138906E-08 -1.365864E-10 -1.232436E-10 -7.138882E-08  2.557854E-10 -4.929268E-13 -4.447714E-13 -2.557845E-10  0.000000E+00  0.000000E+00  0.000000E+00  0.000000E+00  0.000000E+00  0.000000E+00  0.000000E+00  0.000000E+00  8.115673E-02 -1.638197E-04 -1.478101E-04 -8.115643E-02                                                                                                                                                                                                                                                                                                                                                                                                                                                                                              
  7.600000E+02  1.250000E+02 -5.425000E+03  7.141292E-08 -4.584283E-10 -1.295832E-10 -7.141133E-08  2.558691E-10 -1.654400E-12 -4.676461E-13 -2.558633E-10  0.000000E+00  0.000000E+00  0.000000E+00  0.000000E+00  0.000000E+00  0.000000E+00  0.000000E+00  0.000000E+00  8.118249E-02 -5.497874E-04 -1.554085E-04 -8.118048E-02                                                                                                                                                                                                                                                                                                                                                                                                                                                                                              
  7.800000E+02  1.250000E+02 -5.425000E+03  7.141093E-08 -4.980265E-10 -1.305295E-10 -7.140908E-08  2.558623E-10 -1.797299E-12 -4.710605E-13 -2.558556E-10  0.000000E+00  0.000000E+00  0.000000E+00  0.000000E+00  0.000000E+00  0.000000E+00  0.000000E+00  0.000000E+00  8.118159E-02 -5.972741E-04 -1.565426E-04 -8.117924E-02                                                                                                                                                                                                                                                                                                                                                                                                                                                                                              
  8.000000E+02  1.250000E+02 -5.425000E+03  7.139720E-08 -5.392529E-10 -1.314817E-10 -7.139504E-08  2.558147E-10 -1.946070E-12 -4.744961E-13 -2.558068E-10  0.000000E+00  0.000000E+00  0.000000E+00  0.000000E+00  0.000000E+00  0.000000E+00  0.000000E+00  0.000000E+00  8.117053E-02 -6.466984E-04 -1.576838E-04 -8.116780E-02                                                                                                                                                                                                                                                                                                                                                                                                                                                                                              
  9.350000E+02  1.250000E+02 -5.425000E+03  7.140358E-08 -7.998887E-10 -1.379408E-10 -7.139896E-08  2.558385E-10 -2.886579E-12 -4.977990E-13 -2.558218E-10  0.000000E+00  0.000000E+00  0.000000E+00  0.000000E+00  0.000000E+00  0.000000E+00  0.000000E+00  0.000000E+00  8.118513E-02 -9.591103E-04 -1.654220E-04 -8.117930E-02                                                                                                                                                                                                                                                                                                                                                                                                                                                                                              
  1.185000E+03  1.250000E+02 -5.425000E+03  7.158505E-08 -9.286187E-10 -1.490927E-10 -7.157887E-08  2.564815E-10 -3.351003E-12 -5.380115E-13 -2.564591E-10  0.000000E+00  0.000000E+00  0.000000E+00  0.000000E+00  0.000000E+00  0.000000E+00  0.000000E+00  0.000000E+00  8.139380E-02 -1.113286E-03 -1.787574E-04 -8.138599E-02                                                                                                                                                                                                                                                                                                                                                                                                                                                                                              
  1.435000E+03  1.250000E+02 -5.425000E+03  7.173548E-08 -4.090556E-10 -1.560659E-10 -7.173414E-08  2.570176E-10 -1.476066E-12 -5.631438E-13 -2.570127E-10  0.000000E+00  0.000000E+00  0.000000E+00  0.000000E+00  0.000000E+00  0.000000E+00  0.000000E+00  0.000000E+00  8.157651E-02 -4.903479E-04 -1.870816E-04 -8.157482E-02                                                                                                                                                                                                                                                                                                                                                                                                                                                                                              
  1.250000E+02  1.250000E+02 -5.225000E+03  2.700832E-07  2.200682E-10 -1.020390E-10 -2.700831E-07  9.564574E-10  7.832321E-13 -3.631695E-13 -9.564570E-10  0.000000E+00  0.000000E+00  0.000000E+00  0.000000E+00  0.000000E+00  0.000000E+00  0.000000E+00  0.000000E+00  2.910309E-01  2.502098E-04 -1.160157E-04 -2.910307E-01                                                                                                                                                                                                                                                                                                                                                                                                                                                                                              
  3.750000E+02  1.250000E+02 -5.225000E+03  2.696821E-07  3.585136E-10 -1.069688E-10 -2.696818E-07  9.545364E-10  1.275958E-12 -3.806989E-13 -9.545355E-10  0.000000E+00  0.000000E+00  0.000000E+00  0.000000E+00  0.000000E+00  0.000000E+00  0.000000E+00  0.000000E+00  2.892356E-01  4.075900E-04 -1.215998E-04 -2.892353E-01                                                                                                                                                                                                                                                                                                                                                                                                                                                                                              
  6.250000E+02  1.250000E+02 -5.225000E+03  2.691642E-07 -8.208596E-11 -1.160102E-10 -2.691642E-07  9.524779E-10 -2.921461E-13 -4.128822E-13 -9.524778E-10  0.000000E+00  0.000000E+00  0.000000E+00  0.000000E+00  0.000000E+00  0.000000E+00  0.000000E+00  0.000000E+00  2.880230E-01 -9.332000E-05 -1.318843E-04 -2.880229E-01                                                                                                                                                                                                                                                                                                                                                                                                                                                                                              
  7.600000E+02  1.250000E+02 -5.225000E+03  2.692703E-07 -4.626571E-10 -1.221697E-10 -2.692699E-07  9.528872E-10 -1.646598E-12 -4.348017E-13 -9.528856E-10  0.000000E+00  0.000000E+00  0.000000E+00  0.000000E+00  0.000000E+00  0.000000E+00  0.000000E+00  0.000000E+00  2.882402E-01 -5.259536E-04 -1.388839E-04 -2.882397E-01                                                                                                                                                                                                                                                                                                                                                                                                                                                                                              
  7.800000E+02  1.250000E+02 -5.225000E+03  2.692508E-07 -5.063888E-10 -1.230898E-10 -2.692503E-07  9.528401E-10 -1.802247E-12 -4.380783E-13 -9.528383E-10  0.000000E+00  0.000000E+00  0.000000E+00  0.000000E+00  0.000000E+00  0.000000E+00  0.000000E+00  0.000000E+00  2.882768E-01 -5.756894E-04 -1.399322E-04 -2.882761E-01                                                                                                                                                                                                                                                                                                                                                                                                                                                                                              
  8.000000E+02  1.250000E+02 -5.225000E+03  2.691457E-07 -5.554713E-10 -1.240181E-10 -2.691451E-07  9.525270E-10 -1.976959E-12 -4.413880E-13 -9.525248E-10  0.000000E+00  0.000000E+00  0.000000E+00  0.000000E+00  0.000000E+00  0.000000E+00  0.000000E+00  0.000000E+00  2.883124E-01 -6.315345E-04 -1.409953E-04 -2.883117E-01                                                                                                                                                                                                                                                                                                                                                                                                                                                                                              
  9.350000E+02  1.250000E+02 -5.225000E+03  2.691336E-07 -8.822334E-10 -1.303061E-10 -2.691321E-07  9.526284E-10 -3.139980E-12 -4.637777E-13 -9.526231E-10  0.000000E+00  0.000000E+00  0.000000E+00  0.000000E+00  0.000000E+00  0.000000E+00  0.000000E+00  0.000000E+00  2.886835E-01 -1.003101E-03 -1.481570E-04 -2.886817E-01                                                                                                                                                                                                                                                                                                                                                                                                                                                                                              
  1.185000E+03  1.250000E+02 -5.225000E+03  2.697315E-07 -1.091434E-09 -1.413697E-10 -2.697293E-07  9.551009E-10 -3.884603E-12 -5.031567E-13 -9.550928E-10  0.000000E+00  0.000000E+00  0.000000E+00  0.000000E+00  0.000000E+00  0.000000E+00  0.000000E+00  0.000000E+00  2.903309E-01 -1.241058E-03 -1.607403E-04 -2.903282E-01                                                                                                                                                                                                                                                                                                                                                                                                                                                                                              
  1.435000E+03  1.250000E+02 -5.225000E+03  2.702775E-07 -5.004085E-10 -1.485398E-10 -2.702770E-07  9.575246E-10 -1.781061E-12 -5.286958E-13 -9.575228E-10  0.000000E+00  0.000000E+00  0.000000E+00  0.000000E+00  0.000000E+00  0.000000E+00  0.000000E+00  0.000000E+00  2.922580E-01 -5.690559E-04 -1.689184E-04 -2.922574E-01                                                                                                                                                                                                                                                                                                                                                                                                                                                                                              
  1.250000E+02  1.250000E+02 -4.975000E+03  5.279513E-07  1.639699E-09 -7.674050E-11 -5.279487E-07  1.828229E-09  5.729556E-12 -2.683520E-13 -1.828220E-09  0.000000E+00  0.000000E+00  0.000000E+00  0.000000E+00  0.000000E+00  0.000000E+00  0.000000E+00  0.000000E+00  4.895959E-01  1.731697E-03 -8.104696E-05 -4.895928E-01                                                                                                                                                                                                                                                                                                                                                                                                                                                                                              
  3.750000E+02  1.250000E+02 -4.975000E+03  5.257929E-07  2.645641E-09 -8.420016E-11 -5.257862E-07  1.816885E-09  9.240892E-12 -2.940165E-13 -1.816861E-09  0.000000E+00  0.000000E+00  0.000000E+00  0.000000E+00  0.000000E+00  0.000000E+00  0.000000E+00  0.000000E+00  4.776848E-01  2.787236E-03 -8.835395E-05 -4.776767E-01                                                                                                                                                                                                                                                                                                                                                                                                                                                                                              
  6.250000E+02  1.250000E+02 -4.975000E+03  5.245136E-07  4.993795E-10 -9.471634E-11 -5.245133E-07  1.810538E-09  1.743632E-12 -3.305067E-13 -1.810537E-09  0.000000E+00  0.000000E+00  0.000000E+00  0.000000E+00  0.000000E+00  0.000000E+00  0.000000E+00  0.000000E+00  4.714560E-01  5.254209E-04 -9.907386E-05 -4.714557E-01                                                                                                                                                                                                                                                                                                                                                                                                                                                                                              
  7.600000E+02  1.250000E+02 -4.975000E+03  5.245194E-07 -1.141188E-09 -1.012524E-10 -5.245182E-07  1.810862E-09 -3.982493E-12 -3.533536E-13 -1.810858E-09  0.000000E+00  0.000000E+00  0.000000E+00  0.000000E+00  0.000000E+00  0.000000E+00  0.000000E+00  0.000000E+00  4.722506E-01 -1.194433E-03 -1.059651E-04 -4.722490E-01                                                                                                                                                                                                                                                                                                                                                                                                                                                                                              
  7.800000E+02  1.250000E+02 -4.975000E+03  5.245322E-07 -1.391570E-09 -1.022402E-10 -5.245303E-07  1.811047E-09 -4.856732E-12 -3.568217E-13 -1.811040E-09  0.000000E+00  0.000000E+00  0.000000E+00  0.000000E+00  0.000000E+00  0.000000E+00  0.000000E+00  0.000000E+00  4.726100E-01 -1.457217E-03 -1.070277E-04 -4.726078E-01                                                                                                                                                                                                                                                                                                                                                                                                                                                                                              
  8.000000E+02  1.250000E+02 -4.975000E+03  5.245710E-07 -1.614097E-09 -1.032596E-10 -5.245685E-07  1.811529E-09 -5.634452E-12 -3.604343E-13 -1.811520E-09  0.000000E+00  0.000000E+00  0.000000E+00  0.000000E+00  0.000000E+00  0.000000E+00  0.000000E+00  0.000000E+00  4.735038E-01 -1.692403E-03 -1.081695E-04 -4.735008E-01                                                                                                                                                                                                                                                                                                                                                                                                                                                                                              
  9.350000E+02  1.250000E+02 -4.975000E+03  5.246827E-07 -2.657265E-09 -1.099714E-10 -5.246760E-07  1.812861E-09 -9.281608E-12 -3.840158E-13 -1.812838E-09  0.000000E+00  0.000000E+00  0.000000E+00  0.000000E+00  0.000000E+00  0.000000E+00  0.000000E+00  0.000000E+00  4.759367E-01 -2.797653E-03 -1.154100E-04 -4.759285E-01                                                                                                                                                                                                                                                                                                                                                                                                                                                                                              
  1.185000E+03  1.250000E+02 -4.975000E+03  5.256840E-07 -3.815678E-09 -1.230451E-10 -5.256702E-07  1.819213E-09 -1.333960E-11 -4.301257E-13 -1.819164E-09  0.000000E+00  0.000000E+00  0.000000E+00  0.000000E+00  0.000000E+00  0.000000E+00  0.000000E+00  0.000000E+00  4.842676E-01 -4.036956E-03 -1.297534E-04 -4.842508E-01                                                                                                                                                                                                                                                                                                                                                                                                                                                                                              
  1.435000E+03  1.250000E+02 -4.975000E+03  5.279311E-07 -2.015565E-09 -1.335285E-10 -5.279273E-07  1.831026E-09 -7.050501E-12 -4.674316E-13 -1.831012E-09  0.000000E+00  0.000000E+00  0.000000E+00  0.000000E+00  0.000000E+00  0.000000E+00  0.000000E+00  0.000000E+00  4.966740E-01 -2.138805E-03 -1.417014E-04 -4.966693E-01                                                                                                                                                                                                                                                                                                                                                                                                                                                                                              
  1.250000E+02  1.250000E+02 -4.725000E+03  7.973820E-07  1.500725E-09 -2.698931E-11 -7.973806E-07  2.647408E-09  5.023643E-12 -9.057031E-14 -2.647403E-09  0.000000E+00  0.000000E+00  0.000000E+00  0.000000E+00  0.000000E+00  0.000000E+00  0.000000E+00  0.000000E+00  4.720154E-01  1.275342E-03 -2.293539E-05 -4.720137E-01                                                                                                                                                                                                                                                                                                                                                                                                                                                                                              
  3.750000E+02  1.250000E+02 -4.725000E+03  7.903845E-07  1.953503E-09 -3.159036E-11 -7.903821E-07  2.616675E-09  6.533976E-12 -1.055083E-13 -2.616667E-09  0.000000E+00  0.000000E+00  0.000000E+00  0.000000E+00  0.000000E+00  0.000000E+00  0.000000E+00  0.000000E+00  4.560259E-01  1.648136E-03 -2.601100E-05 -4.560229E-01                                                                                                                                                                                                                                                                                                                                                                                                                                                                                              
  6.250000E+02  1.250000E+02 -4.725000E+03  7.889355E-07  5.552492E-10 -3.493361E-11 -7.889353E-07  2.608114E-09  1.851823E-12 -1.163957E-13 -2.608114E-09  0.000000E+00  0.000000E+00  0.000000E+00  0.000000E+00  0.000000E+00  0.000000E+00  0.000000E+00  0.000000E+00  4.495697E-01  4.557740E-04 -2.829149E-05 -4.495695E-01                                                                                                                                                                                                                                                                                                                                                                                                                                                                                              
  7.600000E+02  1.250000E+02 -4.725000E+03  7.885515E-07  1.550635E-10 -3.748616E-11 -7.885515E-07  2.607391E-09  5.167957E-13 -1.249454E-13 -2.607391E-09  0.000000E+00  0.000000E+00  0.000000E+00  0.000000E+00  0.000000E+00  0.000000E+00  0.000000E+00  0.000000E+00  4.500577E-01  1.256759E-04 -3.043550E-05 -4.500577E-01                                                                                                                                                                                                                                                                                                                                                                                                                                                                                              
  7.800000E+02  1.250000E+02 -4.725000E+03  7.884659E-07  4.196799E-11 -3.791264E-11 -7.884659E-07  2.607364E-09  1.398850E-13 -1.263872E-13 -2.607364E-09  0.000000E+00  0.000000E+00  0.000000E+00  0.000000E+00  0.000000E+00  0.000000E+00  0.000000E+00  0.000000E+00  4.503462E-01  3.403684E-05 -3.081639E-05 -4.503461E-01                                                                                                                                                                                                                                                                                                                                                                                                                                                                                              
  8.000000E+02  1.250000E+02 -4.725000E+03  7.882658E-07 -1.256618E-10 -3.842200E-11 -7.882658E-07  2.607350E-09 -4.192640E-13 -1.281365E-13 -2.607350E-09  0.000000E+00  0.000000E+00  0.000000E+00  0.000000E+00  0.000000E+00  0.000000E+00  0.000000E+00  0.000000E+00  4.510813E-01 -1.031067E-04 -3.131786E-05 -4.510813E-01                                                                                                                                                                                                                                                                                                                                                                                                                                                                                              
  9.350000E+02  1.250000E+02 -4.725000E+03  7.894387E-07 -7.657658E-10 -4.175551E-11 -7.894384E-07  2.612906E-09 -2.559938E-12 -1.394023E-13 -2.612905E-09  0.000000E+00  0.000000E+00  0.000000E+00  0.000000E+00  0.000000E+00  0.000000E+00  0.000000E+00  0.000000E+00  4.542636E-01 -6.414411E-04 -3.428688E-05 -4.542632E-01                                                                                                                                                                                                                                                                                                                                                                                                                                                                                              
  1.185000E+03  1.250000E+02 -4.725000E+03  7.899831E-07 -2.911391E-09 -5.259052E-11 -7.899777E-07  2.620172E-09 -9.768044E-12 -1.761914E-13 -2.620154E-09  0.000000E+00  0.000000E+00  0.000000E+00  0.000000E+00  0.000000E+00  0.000000E+00  0.000000E+00  0.000000E+00  4.624228E-01 -2.509806E-03 -4.421543E-05 -4.624160E-01                                                                                                                                                                                                                                                                                                                                                                                                                                                                                              