Title="TOUGHREACT V3.30-OMP flowvector.tec: Liq & Gas Fluxes (kg/s/m^2), Pore Velocities (m/s), & Heat Fluxes (J/s/m2)"                                                                                                                                                                                                                                                                                                                                                                                                                                                                                                                                                                                                                                                                                                         
Variables= "X(m)"     "Y(m)"      "Z(m)"     "FluxLiq"   "FluxLiq_X"   "FluxLiq_Y"   "FluxLiq_Z"   "PorVelLiq"  "PorVelLiqX"  "PorVelLiqY"  "PorVelLiqZ"     "FluxGas"   "FluxGas_X"   "FluxGas_Y"   "FluxGas_Z"   "PorVelGas"  "PorVelGasX"  "PorVelGasY"  "PorVelGasZ"    "HeatFlux"  "HeatFlux_X"  "HeatFlux_Y"  "HeatFlux_Z"                                                                                                                                                                                                                                                                                                                                                                                                                                                                                                
Zone T= "7.33000000E+10 sec" I=     9 J=    10 K=    23 F=Point
  1.250000E+02  1.250000E+02 -5.425000E+03  7.357343E-10 -7.014044E-10  1.445805E-10  1.686215E-10  2.588252E-12 -2.468991E-12  5.089242E-13  5.866250E-13  0.000000E+00  0.000000E+00  0.000000E+00  0.000000E+00  0.000000E+00  0.000000E+00  0.000000E+00  0.000000E+00  9.200332E-04 -8.771152E-04  1.807742E-04  2.108335E-04                                                                                                                                                                                                                                                                                                                                                                                                                                                                                              
  3.750000E+02  1.250000E+02 -5.425000E+03  1.057680E-09 -8.708847E-10  1.510458E-10 -5.808887E-10  3.710042E-12 -3.065596E-12  5.317026E-13 -2.020848E-12  0.000000E+00  0.000000E+00  0.000000E+00  0.000000E+00  0.000000E+00  0.000000E+00  0.000000E+00  0.000000E+00  1.289964E-03 -1.089080E-03  1.888847E-04 -6.650075E-04                                                                                                                                                                                                                                                                                                                                                                                                                                                                                              
  6.250000E+02  1.250000E+02 -5.425000E+03  1.313122E-09  8.520617E-10  1.608440E-10 -9.861079E-10  4.592000E-12  2.999486E-12  5.662148E-13 -3.430590E-12  0.000000E+00  0.000000E+00  0.000000E+00  0.000000E+00  0.000000E+00  0.000000E+00  0.000000E+00  0.000000E+00  1.565349E-03  1.065652E-03  2.011636E-04 -1.128821E-03                                                                                                                                                                                                                                                                                                                                                                                                                                                                                              
  7.600000E+02  1.250000E+02 -5.425000E+03  2.327724E-09  2.129731E-09  1.670554E-10 -9.244651E-10  8.179073E-12  7.497192E-12  5.880770E-13 -3.216132E-12  0.000000E+00  0.000000E+00  0.000000E+00  0.000000E+00  0.000000E+00  0.000000E+00  0.000000E+00  0.000000E+00  2.873695E-03  2.663564E-03  2.089264E-04 -1.058252E-03                                                                                                                                                                                                                                                                                                                                                                                                                                                                                              
  7.800000E+02  1.250000E+02 -5.425000E+03  2.476217E-09  2.299972E-09  1.679796E-10 -9.019774E-10  8.703390E-12  8.096472E-12  5.913302E-13 -3.137908E-12  0.000000E+00  0.000000E+00  0.000000E+00  0.000000E+00  0.000000E+00  0.000000E+00  0.000000E+00  0.000000E+00  3.063356E-03  2.876436E-03  2.100817E-04 -1.032536E-03                                                                                                                                                                                                                                                                                                                                                                                                                                                                                              
  8.000000E+02  1.250000E+02 -5.425000E+03  2.611151E-09  2.461031E-09  1.689084E-10 -8.561001E-10  9.180348E-12  8.663415E-12  5.945995E-13 -2.978334E-12  0.000000E+00  0.000000E+00  0.000000E+00  0.000000E+00  0.000000E+00  0.000000E+00  0.000000E+00  0.000000E+00  3.237036E-03  3.077855E-03  2.112428E-04 -9.800955E-04                                                                                                                                                                                                                                                                                                                                                                                                                                                                                              
  9.350000E+02  1.250000E+02 -5.425000E+03  3.269593E-09  3.195197E-09  1.751863E-10 -6.710134E-10  1.150389E-11  1.124764E-11  6.166947E-13 -2.334462E-12  0.000000E+00  0.000000E+00  0.000000E+00  0.000000E+00  0.000000E+00  0.000000E+00  0.000000E+00  0.000000E+00  4.075033E-03  3.995946E-03  2.190868E-04 -7.683146E-04                                                                                                                                                                                                                                                                                                                                                                                                                                                                                              
  1.185000E+03  1.250000E+02 -5.425000E+03  3.535563E-09  3.529652E-09  1.861346E-10 -8.434729E-11  1.244534E-11  1.242461E-11  6.552072E-13 -2.934468E-13  0.000000E+00  0.000000E+00  0.000000E+00  0.000000E+00  0.000000E+00  0.000000E+00  0.000000E+00  0.000000E+00  4.421008E-03  4.413821E-03  2.327394E-04 -9.659672E-05                                                                                                                                                                                                                                                                                                                                                                                                                                                                                              
  1.435000E+03  1.250000E+02 -5.425000E+03  1.752909E-09  1.603703E-09  1.930348E-10  6.808570E-10  6.159456E-12  5.645015E-12  6.794689E-13  2.368760E-12  0.000000E+00  0.000000E+00  0.000000E+00  0.000000E+00  0.000000E+00  0.000000E+00  0.000000E+00  0.000000E+00  2.191750E-03  2.005241E-03  2.413295E-04  8.511981E-04                                                                                                                                                                                                                                                                                                                                                                                                                                                                                              
  1.250000E+02  1.250000E+02 -5.225000E+03  5.670454E-09 -1.202616E-09  1.290576E-10 -5.539955E-09  1.931973E-11 -4.135447E-12  4.438155E-13 -1.886672E-11  0.000000E+00  0.000000E+00  0.000000E+00  0.000000E+00  0.000000E+00  0.000000E+00  0.000000E+00  0.000000E+00  5.995377E-03 -1.376767E-03  1.478065E-04 -5.833285E-03                                                                                                                                                                                                                                                                                                                                                                                                                                                                                              
  3.750000E+02  1.250000E+02 -5.225000E+03  9.133527E-09 -1.713089E-09  1.359302E-10 -8.970405E-09  3.115091E-11 -5.890703E-12  4.674005E-13 -3.058530E-11  0.000000E+00  0.000000E+00  0.000000E+00  0.000000E+00  0.000000E+00  0.000000E+00  0.000000E+00  0.000000E+00  9.682303E-03 -1.961117E-03  1.556144E-04 -9.480337E-03                                                                                                                                                                                                                                                                                                                                                                                                                                                                                              
  6.250000E+02  1.250000E+02 -5.225000E+03  1.073390E-08  5.818459E-10  1.460865E-10 -1.071712E-08  3.660703E-11  2.000633E-12  5.023127E-13 -3.654887E-11  0.000000E+00  0.000000E+00  0.000000E+00  0.000000E+00  0.000000E+00  0.000000E+00  0.000000E+00  0.000000E+00  1.133592E-02  6.660525E-04  1.672286E-04 -1.131510E-02                                                                                                                                                                                                                                                                                                                                                                                                                                                                                              
  7.600000E+02  1.250000E+02 -5.225000E+03  1.080930E-08  2.309650E-09  1.524332E-10 -1.055857E-08  3.687572E-11  7.941646E-12  5.241359E-13 -3.600659E-11  0.000000E+00  0.000000E+00  0.000000E+00  0.000000E+00  0.000000E+00  0.000000E+00  0.000000E+00  0.000000E+00  1.145937E-02  2.643904E-03  1.744931E-04 -1.114884E-02                                                                                                                                                                                                                                                                                                                                                                                                                                                                                              
  7.800000E+02  1.250000E+02 -5.225000E+03  1.075566E-08  2.554344E-09  1.533816E-10 -1.044682E-08  3.669627E-11  8.783098E-12  5.274007E-13 -3.562576E-11  0.000000E+00  0.000000E+00  0.000000E+00  0.000000E+00  0.000000E+00  0.000000E+00  0.000000E+00  0.000000E+00  1.141501E-02  2.924043E-03  1.755832E-04 -1.103275E-02                                                                                                                                                                                                                                                                                                                                                                                                                                                                                              
  8.000000E+02  1.250000E+02 -5.225000E+03  1.052739E-08  2.777706E-09  1.543388E-10 -1.015315E-08  3.592285E-11  9.551337E-12  5.307027E-13 -3.462574E-11  0.000000E+00  0.000000E+00  0.000000E+00  0.000000E+00  0.000000E+00  0.000000E+00  0.000000E+00  0.000000E+00  1.119115E-02  3.179902E-03  1.766929E-04 -1.072842E-02                                                                                                                                                                                                                                                                                                                                                                                                                                                                                              
  9.350000E+02  1.250000E+02 -5.225000E+03  1.010145E-08  3.766809E-09  1.607702E-10 -9.371480E-09  3.448785E-11  1.295298E-11  5.528391E-13 -3.195820E-11  0.000000E+00  0.000000E+00  0.000000E+00  0.000000E+00  0.000000E+00  0.000000E+00  0.000000E+00  0.000000E+00  1.080930E-02  4.312777E-03  1.840829E-04 -9.909952E-03                                                                                                                                                                                                                                                                                                                                                                                                                                                                                              
  1.185000E+03  1.250000E+02 -5.225000E+03  8.311593E-09  4.397990E-09  1.722360E-10 -7.050574E-09  2.839723E-11  1.512427E-11  5.922994E-13 -2.402724E-11  0.000000E+00  0.000000E+00  0.000000E+00  0.000000E+00  0.000000E+00  0.000000E+00  0.000000E+00  0.000000E+00  9.000485E-03  5.036181E-03  1.972491E-04 -7.456990E-03                                                                                                                                                                                                                                                                                                                                                                                                                                                                                              
  1.435000E+03  1.250000E+02 -5.225000E+03  4.225637E-09  2.071875E-09  1.800250E-10 -3.678442E-09  1.439804E-11  7.125279E-12  6.191479E-13 -1.249602E-11  0.000000E+00  0.000000E+00  0.000000E+00  0.000000E+00  0.000000E+00  0.000000E+00  0.000000E+00  0.000000E+00  4.475521E-03  2.372765E-03  2.062471E-04 -3.789160E-03                                                                                                                                                                                                                                                                                                                                                                                                                                                                                              
  1.250000E+02  1.250000E+02 -4.975000E+03  1.733324E-08 -1.449269E-09  9.491710E-11 -1.727228E-08  5.792234E-11 -4.891268E-12  3.206038E-13 -5.771456E-11  0.000000E+00  0.000000E+00  0.000000E+00  0.000000E+00  0.000000E+00  0.000000E+00  0.000000E+00  0.000000E+00  1.581055E-02 -1.522827E-03  1.004962E-04 -1.573672E-02                                                                                                                                                                                                                                                                                                                                                                                                                                                                                              
  3.750000E+02  1.250000E+02 -4.975000E+03  2.505586E-08 -2.155718E-09  1.008502E-10 -2.496275E-08  8.354991E-11 -7.272520E-12  3.400755E-13 -8.323209E-11  0.000000E+00  0.000000E+00  0.000000E+00  0.000000E+00  0.000000E+00  0.000000E+00  0.000000E+00  0.000000E+00  2.238900E-02 -2.262328E-03  1.059689E-04 -2.227416E-02                                                                                                                                                                                                                                                                                                                                                                                                                                                                                              
  6.250000E+02  1.250000E+02 -4.975000E+03  2.860319E-08  2.109136E-10  1.093157E-10 -2.860221E-08  9.527325E-11  7.098141E-13  3.683183E-13 -9.526989E-11  0.000000E+00  0.000000E+00  0.000000E+00  0.000000E+00  0.000000E+00  0.000000E+00  0.000000E+00  0.000000E+00  2.526035E-02  2.207811E-04  1.144300E-04 -2.525913E-02                                                                                                                                                                                                                                                                                                                                                                                                                                                                                              
  7.600000E+02  1.250000E+02 -4.975000E+03  2.847710E-08  1.964577E-09  1.148745E-10 -2.840902E-08  9.487125E-11  6.620006E-12  3.870964E-13 -9.463921E-11  0.000000E+00  0.000000E+00  0.000000E+00  0.000000E+00  0.000000E+00  0.000000E+00  0.000000E+00  0.000000E+00  2.520821E-02  2.057115E-03  1.203175E-04 -2.512385E-02                                                                                                                                                                                                                                                                                                                                                                                                                                                                                              
  7.800000E+02  1.250000E+02 -4.975000E+03  2.824426E-08  2.218709E-09  1.157230E-10 -2.815674E-08  9.410459E-11  7.477166E-12  3.899819E-13 -9.380626E-11  0.000000E+00  0.000000E+00  0.000000E+00  0.000000E+00  0.000000E+00  0.000000E+00  0.000000E+00  0.000000E+00  2.502799E-02  2.324218E-03  1.212439E-04 -2.491954E-02                                                                                                                                                                                                                                                                                                                                                                                                                                                                                              
  8.000000E+02  1.250000E+02 -4.975000E+03  2.751113E-08  2.447505E-09  1.166133E-10 -2.740179E-08  9.168411E-11  8.250056E-12  3.930503E-13 -9.131132E-11  0.000000E+00  0.000000E+00  0.000000E+00  0.000000E+00  0.000000E+00  0.000000E+00  0.000000E+00  0.000000E+00  2.443669E-02  2.565332E-03  1.222737E-04 -2.430136E-02                                                                                                                                                                                                                                                                                                                                                                                                                                                                                              
  9.350000E+02  1.250000E+02 -4.975000E+03  2.609505E-08  3.527964E-09  1.224097E-10 -2.585518E-08  8.701647E-11  1.190033E-11  4.127736E-13 -8.619789E-11  0.000000E+00  0.000000E+00  0.000000E+00  0.000000E+00  0.000000E+00  0.000000E+00  0.000000E+00  0.000000E+00  2.332850E-02  3.704090E-03  1.286167E-04 -2.303219E-02                                                                                                                                                                                                                                                                                                                                                                                                                                                                                              
  1.185000E+03  1.250000E+02 -4.975000E+03  2.179209E-08  4.487171E-09  1.337066E-10 -2.132470E-08  7.278934E-11  1.515147E-11  4.514222E-13 -7.119352E-11  0.000000E+00  0.000000E+00  0.000000E+00  0.000000E+00  0.000000E+00  0.000000E+00  0.000000E+00  0.000000E+00  1.983551E-02  4.727834E-03  1.412720E-04 -1.926331E-02                                                                                                                                                                                                                                                                                                                                                                                                                                                                                              
  1.435000E+03  1.250000E+02 -4.975000E+03  1.395937E-08  2.235217E-09  1.427523E-10 -1.377851E-08  4.671586E-11  7.552970E-12  4.827611E-13 -4.609871E-11  0.000000E+00  0.000000E+00  0.000000E+00  0.000000E+00  0.000000E+00  0.000000E+00  0.000000E+00  0.000000E+00  1.292468E-02  2.361692E-03  1.519560E-04 -1.270616E-02                                                                                                                                                                                                                                                                                                                                                                                                                                                                                              
  1.250000E+02  1.250000E+02 -4.725000E+03  3.180806E-08  7.660698E-10  4.538996E-11 -3.179880E-08  1.018780E-10  2.475563E-12  1.470281E-13 -1.018478E-10  0.000000E+00  0.000000E+00  0.000000E+00  0.000000E+00  0.000000E+00  0.000000E+00  0.000000E+00  0.000000E+00  1.780681E-02  6.421138E-04  3.804551E-05 -1.779519E-02                                                                                                                                                                                                                                                                                                                                                                                                                                                                                              
  3.750000E+02  1.250000E+02 -4.725000E+03  4.088028E-08  1.248881E-09  4.329158E-11 -4.086118E-08  1.308749E-10  4.030506E-12  1.395927E-13 -1.308127E-10  0.000000E+00  0.000000E+00  0.000000E+00  0.000000E+00  0.000000E+00  0.000000E+00  0.000000E+00  0.000000E+00  2.320075E-02  1.034196E-03  3.515631E-05 -2.317766E-02                                                                                                                                                                                                                                                                                                                                                                                                                                                                                              
  6.250000E+02  1.250000E+02 -4.725000E+03  4.531178E-08  4.893029E-10  4.340141E-11 -4.530912E-08  1.449485E-10  1.575830E-12  1.396260E-13 -1.449399E-10  0.000000E+00  0.000000E+00  0.000000E+00  0.000000E+00  0.000000E+00  0.000000E+00  0.000000E+00  0.000000E+00  2.565148E-02  3.972673E-04  3.466570E-05 -2.564838E-02                                                                                                                                                                                                                                                                                                                                                                                                                                                                                              
  7.600000E+02  1.250000E+02 -4.725000E+03  4.492473E-08 -4.017906E-11  4.449489E-11 -4.492469E-08  1.437490E-10 -1.293172E-13  1.431928E-13 -1.437488E-10  0.000000E+00  0.000000E+00  0.000000E+00  0.000000E+00  0.000000E+00  0.000000E+00  0.000000E+00  0.000000E+00  2.549360E-02 -3.222630E-05  3.562750E-05 -2.549355E-02                                                                                                                                                                                                                                                                                                                                                                                                                                                                                              
  7.800000E+02  1.250000E+02 -4.725000E+03  4.464007E-08 -1.430379E-10  4.468697E-11 -4.463982E-08  1.428440E-10 -4.604343E-13  1.438330E-13 -1.428432E-10  0.000000E+00  0.000000E+00  0.000000E+00  0.000000E+00  0.000000E+00  0.000000E+00  0.000000E+00  0.000000E+00  2.533121E-02 -1.148737E-04  3.582116E-05 -2.533092E-02                                                                                                                                                                                                                                                                                                                                                                                                                                                                                              
  8.000000E+02  1.250000E+02 -4.725000E+03  4.383804E-08 -2.250432E-10  4.494559E-11 -4.383744E-08  1.402816E-10 -7.247527E-13  1.447208E-13 -1.402796E-10  0.000000E+00  0.000000E+00  0.000000E+00  0.000000E+00  0.000000E+00  0.000000E+00  0.000000E+00  0.000000E+00  2.484731E-02 -1.816542E-04  3.612837E-05 -2.484662E-02                                                                                                                                                                                                                                                                                                                                                                                                                                                                                              
  9.350000E+02  1.250000E+02 -4.725000E+03  4.206285E-08 -5.245851E-10  4.628194E-11 -4.205956E-08  1.346477E-10 -1.692647E-12  1.491754E-13 -1.346370E-10  0.000000E+00  0.000000E+00  0.000000E+00  0.000000E+00  0.000000E+00  0.000000E+00  0.000000E+00  0.000000E+00  2.385928E-02 -4.323933E-04  3.747553E-05 -2.385533E-02                                                                                                                                                                                                                                                                                                                                                                                                                                                                                              
  1.185000E+03  1.250000E+02 -4.725000E+03  3.643206E-08 -1.048353E-09  4.871174E-11 -3.641694E-08  1.167681E-10 -3.393016E-12  1.575352E-13 -1.167187E-10  0.000000E+00  0.000000E+00  0.000000E+00  0.000000E+00  0.000000E+00  0.000000E+00  0.000000E+00  0.000000E+00  2.075092E-02 -8.868980E-04  4.038115E-05 -2.073192E-02                                                                                                                                                                                                                                                                                                                                                                                                                                                                                              