Title="TOUGHREACT V3.30-OMP flowvector.tec: Liq & Gas Fluxes (kg/s/m^2), Pore Velocities (m/s), & Heat Fluxes (J/s/m2)"                                                                                                                                                                                                                                                                                                                                                                                                                                                                                                                                                                                                                                                                                                         
Variables= "X(m)"     "Y(m)"      "Z(m)"     "FluxLiq"   "FluxLiq_X"   "FluxLiq_Y"   "FluxLiq_Z"   "PorVelLiq"  "PorVelLiqX"  "PorVelLiqY"  "PorVelLiqZ"     "FluxGas"   "FluxGas_X"   "FluxGas_Y"   "FluxGas_Z"   "PorVelGas"  "PorVelGasX"  "PorVelGasY"  "PorVelGasZ"    "HeatFlux"  "HeatFlux_X"  "HeatFlux_Y"  "HeatFlux_Z"                                                                                                                                                                                                                                                                                                                                                                                                                                                                                                
Zone T= "2.30000000E+10 sec" I=     9 J=    10 K=    23 F=Point
  1.250000E+02  1.250000E+02 -5.425000E+03  4.677659E-08 -1.548715E-10  5.365451E-12 -4.677633E-08  1.661563E-10 -5.541942E-13  1.919933E-14 -1.661554E-10  0.000000E+00  0.000000E+00  0.000000E+00  0.000000E+00  0.000000E+00  0.000000E+00  0.000000E+00  0.000000E+00  5.328056E-02 -1.864411E-04  6.457924E-06 -5.328024E-02                                                                                                                                                                                                                                                                                                                                                                                                                                                                                              
  3.750000E+02  1.250000E+02 -5.425000E+03  4.697583E-08 -1.426697E-10  5.316925E-12 -4.697561E-08  1.668642E-10 -5.105292E-13  1.902669E-14 -1.668634E-10  0.000000E+00  0.000000E+00  0.000000E+00  0.000000E+00  0.000000E+00  0.000000E+00  0.000000E+00  0.000000E+00  5.349642E-02 -1.717521E-04  6.400749E-06 -5.349615E-02                                                                                                                                                                                                                                                                                                                                                                                                                                                                                              
  6.250000E+02  1.250000E+02 -5.425000E+03  4.703742E-08  2.926524E-10  4.514358E-12 -4.703651E-08  1.670874E-10  1.047301E-12  1.615540E-14 -1.670841E-10  0.000000E+00  0.000000E+00  0.000000E+00  0.000000E+00  0.000000E+00  0.000000E+00  0.000000E+00  0.000000E+00  5.356832E-02  3.523619E-04  5.435454E-06 -5.356716E-02                                                                                                                                                                                                                                                                                                                                                                                                                                                                                              
  7.600000E+02  1.250000E+02 -5.425000E+03  4.702977E-08  5.815712E-10  3.791707E-12 -4.702617E-08  1.670594E-10  2.081237E-12  1.356916E-14 -1.670464E-10  0.000000E+00  0.000000E+00  0.000000E+00  0.000000E+00  0.000000E+00  0.000000E+00  0.000000E+00  0.000000E+00  5.355908E-02  7.002219E-04  4.565212E-06 -5.355450E-02                                                                                                                                                                                                                                                                                                                                                                                                                                                                                              
  7.800000E+02  1.250000E+02 -5.425000E+03  4.702079E-08  6.217582E-10  3.683238E-12 -4.701668E-08  1.670278E-10  2.225046E-12  1.318097E-14 -1.670129E-10  0.000000E+00  0.000000E+00  0.000000E+00  0.000000E+00  0.000000E+00  0.000000E+00  0.000000E+00  0.000000E+00  5.354987E-02  7.485945E-04  4.434594E-06 -5.354464E-02                                                                                                                                                                                                                                                                                                                                                                                                                                                                                              
  8.000000E+02  1.250000E+02 -5.425000E+03  4.699698E-08  6.577137E-10  3.573499E-12 -4.699238E-08  1.669443E-10  2.353708E-12  1.278824E-14 -1.669277E-10  0.000000E+00  0.000000E+00  0.000000E+00  0.000000E+00  0.000000E+00  0.000000E+00  0.000000E+00  0.000000E+00  5.352599E-02  7.918810E-04  4.302448E-06 -5.352013E-02                                                                                                                                                                                                                                                                                                                                                                                                                                                                                              
  9.350000E+02  1.250000E+02 -5.425000E+03  4.693304E-08  7.803354E-10  2.823670E-12 -4.692656E-08  1.667183E-10  2.792457E-12  1.010475E-14 -1.666949E-10  0.000000E+00  0.000000E+00  0.000000E+00  0.000000E+00  0.000000E+00  0.000000E+00  0.000000E+00  0.000000E+00  5.345854E-02  9.394886E-04  3.399501E-06 -5.345028E-02                                                                                                                                                                                                                                                                                                                                                                                                                                                                                              
  1.185000E+03  1.250000E+02 -5.425000E+03  4.681125E-08  8.147057E-10  1.576157E-12 -4.680416E-08  1.662821E-10  2.915335E-12  5.640095E-15 -1.662565E-10  0.000000E+00  0.000000E+00  0.000000E+00  0.000000E+00  0.000000E+00  0.000000E+00  0.000000E+00  0.000000E+00  5.332262E-02  9.807537E-04  1.897180E-06 -5.331360E-02                                                                                                                                                                                                                                                                                                                                                                                                                                                                                              
  1.435000E+03  1.250000E+02 -5.425000E+03  4.661220E-08  3.714464E-10  8.651747E-13 -4.661072E-08  1.655742E-10  1.329141E-12  3.095766E-15 -1.655689E-10  0.000000E+00  0.000000E+00  0.000000E+00  0.000000E+00  0.000000E+00  0.000000E+00  0.000000E+00  0.000000E+00  5.310488E-02  4.471005E-04  1.041188E-06 -5.310300E-02                                                                                                                                                                                                                                                                                                                                                                                                                                                                                              
  1.250000E+02  1.250000E+02 -5.225000E+03  1.783484E-07 -3.175113E-10  3.012827E-12 -1.783481E-07  6.260541E-10 -1.120028E-12  1.062810E-14 -6.260531E-10  0.000000E+00  0.000000E+00  0.000000E+00  0.000000E+00  0.000000E+00  0.000000E+00  0.000000E+00  0.000000E+00  1.923045E-01 -3.615841E-04  3.431738E-06 -1.923041E-01                                                                                                                                                                                                                                                                                                                                                                                                                                                                                              
  3.750000E+02  1.250000E+02 -5.225000E+03  1.793931E-07 -4.128254E-10  3.271486E-12 -1.793926E-07  6.293742E-10 -1.456242E-12  1.153993E-14 -6.293725E-10  0.000000E+00  0.000000E+00  0.000000E+00  0.000000E+00  0.000000E+00  0.000000E+00  0.000000E+00  0.000000E+00  1.924896E-01 -4.701318E-04  3.725591E-06 -1.924890E-01                                                                                                                                                                                                                                                                                                                                                                                                                                                                                              
  6.250000E+02  1.250000E+02 -5.225000E+03  1.797530E-07  2.195476E-10  2.794061E-12 -1.797529E-07  6.304792E-10  7.744426E-13  9.855926E-15 -6.304787E-10  0.000000E+00  0.000000E+00  0.000000E+00  0.000000E+00  0.000000E+00  0.000000E+00  0.000000E+00  0.000000E+00  1.924194E-01  2.500301E-04  3.181994E-06 -1.924193E-01                                                                                                                                                                                                                                                                                                                                                                                                                                                                                              
  7.600000E+02  1.250000E+02 -5.225000E+03  1.797504E-07  6.650863E-10  2.276354E-12 -1.797492E-07  6.304937E-10  2.346055E-12  8.029710E-15 -6.304893E-10  0.000000E+00  0.000000E+00  0.000000E+00  0.000000E+00  0.000000E+00  0.000000E+00  0.000000E+00  0.000000E+00  1.924878E-01  7.574217E-04  2.592365E-06 -1.924863E-01                                                                                                                                                                                                                                                                                                                                                                                                                                                                                              
  7.800000E+02  1.250000E+02 -5.225000E+03  1.796986E-07  7.335793E-10  2.199208E-12 -1.796971E-07  6.303272E-10  2.587676E-12  7.757617E-15 -6.303219E-10  0.000000E+00  0.000000E+00  0.000000E+00  0.000000E+00  0.000000E+00  0.000000E+00  0.000000E+00  0.000000E+00  1.924719E-01  8.354250E-04  2.504554E-06 -1.924701E-01                                                                                                                                                                                                                                                                                                                                                                                                                                                                                              
  8.000000E+02  1.250000E+02 -5.225000E+03  1.795334E-07  7.914096E-10  2.121432E-12 -1.795317E-07  6.297881E-10  2.791711E-12  7.483376E-15 -6.297819E-10  0.000000E+00  0.000000E+00  0.000000E+00  0.000000E+00  0.000000E+00  0.000000E+00  0.000000E+00  0.000000E+00  1.923972E-01  9.013191E-04  2.416122E-06 -1.923951E-01                                                                                                                                                                                                                                                                                                                                                                                                                                                                                              
  9.350000E+02  1.250000E+02 -5.225000E+03  1.792336E-07  9.918356E-10  1.578109E-12 -1.792309E-07  6.288358E-10  3.498791E-12  5.566937E-15 -6.288261E-10  0.000000E+00  0.000000E+00  0.000000E+00  0.000000E+00  0.000000E+00  0.000000E+00  0.000000E+00  0.000000E+00  1.923391E-01  1.129676E-03  1.797498E-06 -1.923358E-01                                                                                                                                                                                                                                                                                                                                                                                                                                                                                              
  1.185000E+03  1.250000E+02 -5.225000E+03  1.786616E-07  1.114078E-09  7.054262E-13 -1.786581E-07  6.270748E-10  3.930103E-12  2.488499E-15 -6.270624E-10  0.000000E+00  0.000000E+00  0.000000E+00  0.000000E+00  0.000000E+00  0.000000E+00  0.000000E+00  0.000000E+00  1.924146E-01  1.268988E-03  8.035357E-07 -1.924105E-01                                                                                                                                                                                                                                                                                                                                                                                                                                                                                              
  1.435000E+03  1.250000E+02 -5.225000E+03  1.776784E-07  5.302970E-10  2.773314E-13 -1.776776E-07  6.239616E-10  1.870746E-12  9.783760E-16 -6.239588E-10  0.000000E+00  0.000000E+00  0.000000E+00  0.000000E+00  0.000000E+00  0.000000E+00  0.000000E+00  0.000000E+00  1.922709E-01  6.040498E-04  3.159602E-07 -1.922700E-01                                                                                                                                                                                                                                                                                                                                                                                                                                                                                              
  1.250000E+02  1.250000E+02 -4.975000E+03  3.505322E-07  3.268864E-10  1.353843E-12 -3.505320E-07  1.203192E-09  1.132050E-12  4.692106E-15 -1.203191E-09  0.000000E+00  0.000000E+00  0.000000E+00  0.000000E+00  0.000000E+00  0.000000E+00  0.000000E+00  0.000000E+00  3.243676E-01  3.454009E-04  1.430523E-06 -3.243674E-01                                                                                                                                                                                                                                                                                                                                                                                                                                                                                              
  3.750000E+02  1.250000E+02 -4.975000E+03  3.523303E-07  6.047013E-10 -9.197316E-14 -3.523298E-07  1.206779E-09  2.093120E-12 -3.182906E-16 -1.206777E-09  0.000000E+00  0.000000E+00  0.000000E+00  0.000000E+00  0.000000E+00  0.000000E+00  0.000000E+00  0.000000E+00  3.193921E-01  6.370121E-04 -9.654319E-08 -3.193914E-01                                                                                                                                                                                                                                                                                                                                                                                                                                                                                              
  6.250000E+02  1.250000E+02 -4.975000E+03  3.530468E-07  3.760819E-10 -1.952096E-12 -3.530466E-07  1.207945E-09  1.300918E-12 -6.750758E-15 -1.207944E-09  0.000000E+00  0.000000E+00  0.000000E+00  0.000000E+00  0.000000E+00  0.000000E+00  0.000000E+00  0.000000E+00  3.166409E-01  3.944214E-04 -2.042422E-06 -3.166407E-01                                                                                                                                                                                                                                                                                                                                                                                                                                                                                              
  7.600000E+02  1.250000E+02 -4.975000E+03  3.529492E-07  1.768960E-10 -2.912764E-12 -3.529491E-07  1.207813E-09  6.118009E-13 -1.007411E-14 -1.207813E-09  0.000000E+00  0.000000E+00  0.000000E+00  0.000000E+00  0.000000E+00  0.000000E+00  0.000000E+00  0.000000E+00  3.170788E-01  1.851173E-04 -3.049148E-06 -3.170787E-01                                                                                                                                                                                                                                                                                                                                                                                                                                                                                              
  7.800000E+02  1.250000E+02 -4.975000E+03  3.528657E-07  1.391010E-10 -3.054771E-12 -3.528657E-07  1.207621E-09  4.811316E-13 -1.056590E-14 -1.207621E-09  0.000000E+00  0.000000E+00  0.000000E+00  0.000000E+00  0.000000E+00  0.000000E+00  0.000000E+00  0.000000E+00  3.172373E-01  1.456255E-04 -3.198688E-06 -3.172373E-01                                                                                                                                                                                                                                                                                                                                                                                                                                                                                              
  8.000000E+02  1.250000E+02 -4.975000E+03  3.526298E-07  1.096301E-10 -3.196726E-12 -3.526297E-07  1.207047E-09  3.792675E-13 -1.105860E-14 -1.207047E-09  0.000000E+00  0.000000E+00  0.000000E+00  0.000000E+00  0.000000E+00  0.000000E+00  0.000000E+00  0.000000E+00  3.176033E-01  1.148262E-04 -3.349684E-06 -3.176032E-01                                                                                                                                                                                                                                                                                                                                                                                                                                                                                              
  9.350000E+02  1.250000E+02 -4.975000E+03  3.520883E-07 -2.256675E-13 -4.138258E-12 -3.520883E-07  1.205822E-09 -9.044073E-16 -1.432152E-14 -1.205822E-09  0.000000E+00  0.000000E+00  0.000000E+00  0.000000E+00  0.000000E+00  0.000000E+00  0.000000E+00  0.000000E+00  3.186716E-01 -5.885305E-07 -4.344308E-06 -3.186716E-01                                                                                                                                                                                                                                                                                                                                                                                                                                                                                              
  1.185000E+03  1.250000E+02 -4.975000E+03  3.507815E-07 -2.191918E-10 -5.941222E-12 -3.507815E-07  1.203259E-09 -7.597103E-13 -2.058363E-14 -1.203259E-09  0.000000E+00  0.000000E+00  0.000000E+00  0.000000E+00  0.000000E+00  0.000000E+00  0.000000E+00  0.000000E+00  3.224167E-01 -2.323988E-04 -6.267921E-06 -3.224166E-01                                                                                                                                                                                                                                                                                                                                                                                                                                                                                              
  1.435000E+03  1.250000E+02 -4.975000E+03  3.489727E-07 -1.698082E-10 -7.368137E-12 -3.489727E-07  1.199716E-09 -5.887161E-13 -2.556431E-14 -1.199716E-09  0.000000E+00  0.000000E+00  0.000000E+00  0.000000E+00  0.000000E+00  0.000000E+00  0.000000E+00  0.000000E+00  3.275863E-01 -1.803024E-04 -7.823972E-06 -3.275862E-01                                                                                                                                                                                                                                                                                                                                                                                                                                                                                              
  1.250000E+02  1.250000E+02 -4.725000E+03  5.302126E-07  5.256005E-10  4.864843E-12 -5.302123E-07  1.745535E-09  1.743668E-12  1.617833E-14 -1.745534E-09  0.000000E+00  0.000000E+00  0.000000E+00  0.000000E+00  0.000000E+00  0.000000E+00  0.000000E+00  0.000000E+00  3.120968E-01  4.449058E-04  4.117951E-06 -3.120964E-01                                                                                                                                                                                                                                                                                                                                                                                                                                                                                              
  3.750000E+02  1.250000E+02 -4.725000E+03  5.307421E-07  6.303154E-10  3.099628E-12 -5.307418E-07  1.742487E-09  2.089858E-12  1.026006E-14 -1.742486E-09  0.000000E+00  0.000000E+00  0.000000E+00  0.000000E+00  0.000000E+00  0.000000E+00  0.000000E+00  0.000000E+00  3.052720E-01  5.308053E-04  2.542682E-06 -3.052716E-01                                                                                                                                                                                                                                                                                                                                                                                                                                                                                              
  6.250000E+02  1.250000E+02 -4.725000E+03  5.318787E-07  3.059098E-10  2.784646E-12 -5.318786E-07  1.743798E-09  1.010719E-12  9.195816E-15 -1.743798E-09  0.000000E+00  0.000000E+00  0.000000E+00  0.000000E+00  0.000000E+00  0.000000E+00  0.000000E+00  0.000000E+00  3.024536E-01  2.482475E-04  2.246983E-06 -3.024535E-01                                                                                                                                                                                                                                                                                                                                                                                                                                                                                              
  7.600000E+02  1.250000E+02 -4.725000E+03  5.315325E-07  3.963653E-10  2.626842E-12 -5.315324E-07  1.743021E-09  1.309321E-12  8.677757E-15 -1.743020E-09  0.000000E+00  0.000000E+00  0.000000E+00  0.000000E+00  0.000000E+00  0.000000E+00  0.000000E+00  0.000000E+00  3.027196E-01  3.202266E-04  2.124924E-06 -3.027194E-01                                                                                                                                                                                                                                                                                                                                                                                                                                                                                              
  7.800000E+02  1.250000E+02 -4.725000E+03  5.313782E-07  3.773489E-10  2.594156E-12 -5.313780E-07  1.742680E-09  1.246831E-12  8.571132E-15 -1.742679E-09  0.000000E+00  0.000000E+00  0.000000E+00  0.000000E+00  0.000000E+00  0.000000E+00  0.000000E+00  0.000000E+00  3.028451E-01  3.054117E-04  2.100816E-06 -3.028449E-01                                                                                                                                                                                                                                                                                                                                                                                                                                                                                              
  8.000000E+02  1.250000E+02 -4.725000E+03  5.309688E-07  3.308619E-10  2.551825E-12 -5.309687E-07  1.741751E-09  1.093747E-12  8.434585E-15 -1.741751E-09  0.000000E+00  0.000000E+00  0.000000E+00  0.000000E+00  0.000000E+00  0.000000E+00  0.000000E+00  0.000000E+00  3.031451E-01  2.682739E-04  2.072254E-06 -3.031450E-01                                                                                                                                                                                                                                                                                                                                                                                                                                                                                              
  9.350000E+02  1.250000E+02 -4.725000E+03  5.307637E-07  1.860674E-10  2.108679E-12 -5.307637E-07  1.742161E-09  6.156242E-13  6.977148E-15 -1.742161E-09  0.000000E+00  0.000000E+00  0.000000E+00  0.000000E+00  0.000000E+00  0.000000E+00  0.000000E+00  0.000000E+00  3.045670E-01  1.513216E-04  1.724926E-06 -3.045669E-01                                                                                                                                                                                                                                                                                                                                                                                                                                                                                              
  1.185000E+03  1.250000E+02 -4.725000E+03  5.286550E-07 -7.408720E-10 -9.204700E-13 -5.286545E-07  1.738736E-09 -2.466120E-12 -3.056123E-15 -1.738734E-09  0.000000E+00  0.000000E+00  0.000000E+00  0.000000E+00  0.000000E+00  0.000000E+00  0.000000E+00  0.000000E+00  3.082020E-01 -6.423636E-04 -7.709072E-07 -3.082013E-01                                                                                                                                                                                                                                                                                                                                                                                                                                                                                              