Title="TOUGHREACT V3.30-OMP flowvector.tec: Liq & Gas Fluxes (kg/s/m^2), Pore Velocities (m/s), & Heat Fluxes (J/s/m2)"                                                                                                                                                                                                                                                                                                                                                                                                                                                                                                                                                                                                                                                                                                         
Variables= "X(m)"     "Y(m)"      "Z(m)"     "FluxLiq"   "FluxLiq_X"   "FluxLiq_Y"   "FluxLiq_Z"   "PorVelLiq"  "PorVelLiqX"  "PorVelLiqY"  "PorVelLiqZ"     "FluxGas"   "FluxGas_X"   "FluxGas_Y"   "FluxGas_Z"   "PorVelGas"  "PorVelGasX"  "PorVelGasY"  "PorVelGasZ"    "HeatFlux"  "HeatFlux_X"  "HeatFlux_Y"  "HeatFlux_Z"                                                                                                                                                                                                                                                                                                                                                                                                                                                                                                
Zone T= "4.00000000E+10 sec" I=     9 J=    10 K=    23 F=Point
  1.250000E+02  1.250000E+02 -5.425000E+03  3.750424E-09 -4.066131E-11 -1.257497E-10  3.748095E-09  2.186210E-11 -2.396185E-13 -7.410472E-13  2.184822E-11  0.000000E+00  0.000000E+00  0.000000E+00  0.000000E+00  0.000000E+00  0.000000E+00  0.000000E+00  0.000000E+00  4.192234E-03 -4.545140E-05 -1.405635E-04  4.189630E-03                                                                                                                                                                                                                                                                                                                                                                                                                                                                                              
  3.750000E+02  1.250000E+02 -5.425000E+03  3.667107E-09  3.282120E-11 -1.410346E-10  3.664247E-09  2.137649E-11  1.934168E-13 -8.311218E-13  2.135945E-11  0.000000E+00  0.000000E+00  0.000000E+00  0.000000E+00  0.000000E+00  0.000000E+00  0.000000E+00  0.000000E+00  4.099109E-03  3.668769E-05 -1.576494E-04  4.095912E-03                                                                                                                                                                                                                                                                                                                                                                                                                                                                                              
  6.250000E+02  1.250000E+02 -5.425000E+03  3.612085E-09  4.200591E-10 -1.661200E-10  3.583729E-09  2.105905E-11  2.475426E-12 -9.789523E-13  2.089012E-11  0.000000E+00  0.000000E+00  0.000000E+00  0.000000E+00  0.000000E+00  0.000000E+00  0.000000E+00  0.000000E+00  4.037615E-03  4.695449E-04 -1.856907E-04  4.005918E-03                                                                                                                                                                                                                                                                                                                                                                                                                                                                                              
  7.600000E+02  1.250000E+02 -5.425000E+03  3.703429E-09  7.100857E-10 -1.824231E-10  3.630136E-09  2.159721E-11  4.184565E-12 -1.075027E-12  2.116065E-11  0.000000E+00  0.000000E+00  0.000000E+00  0.000000E+00  0.000000E+00  0.000000E+00  0.000000E+00  0.000000E+00  4.139717E-03  7.937386E-04 -2.039143E-04  4.057789E-03                                                                                                                                                                                                                                                                                                                                                                                                                                                                                              
  7.800000E+02  1.250000E+02 -5.425000E+03  3.717673E-09  7.430963E-10 -1.848487E-10  3.637957E-09  2.168105E-11  4.379099E-12 -1.089322E-12  2.120624E-11  0.000000E+00  0.000000E+00  0.000000E+00  0.000000E+00  0.000000E+00  0.000000E+00  0.000000E+00  0.000000E+00  4.155639E-03  8.306379E-04 -2.066256E-04  4.066532E-03                                                                                                                                                                                                                                                                                                                                                                                                                                                                                              
  8.000000E+02  1.250000E+02 -5.425000E+03  3.732758E-09  7.742666E-10 -1.872811E-10  3.646769E-09  2.176978E-11  4.562787E-12 -1.103656E-12  2.125761E-11  0.000000E+00  0.000000E+00  0.000000E+00  0.000000E+00  0.000000E+00  0.000000E+00  0.000000E+00  0.000000E+00  4.172501E-03  8.654801E-04 -2.093445E-04  4.076381E-03                                                                                                                                                                                                                                                                                                                                                                                                                                                                                              
  9.350000E+02  1.250000E+02 -5.425000E+03  3.820886E-09  8.870622E-10 -2.037160E-10  3.710901E-09  2.228651E-11  5.227498E-12 -1.200508E-12  2.163147E-11  0.000000E+00  0.000000E+00  0.000000E+00  0.000000E+00  0.000000E+00  0.000000E+00  0.000000E+00  0.000000E+00  4.271007E-03  9.915632E-04 -2.277153E-04  4.148066E-03                                                                                                                                                                                                                                                                                                                                                                                                                                                                                              
  1.185000E+03  1.250000E+02 -5.425000E+03  3.968300E-09  8.430685E-10 -2.316581E-10  3.870785E-09  2.314432E-11  4.968245E-12 -1.365173E-12  2.256352E-11  0.000000E+00  0.000000E+00  0.000000E+00  0.000000E+00  0.000000E+00  0.000000E+00  0.000000E+00  0.000000E+00  4.435784E-03  9.423862E-04 -2.589485E-04  4.326781E-03                                                                                                                                                                                                                                                                                                                                                                                                                                                                                              
  1.435000E+03  1.250000E+02 -5.425000E+03  4.025605E-09  3.506857E-10 -2.433873E-10  4.002909E-09  2.346898E-11  2.066610E-12 -1.434295E-12  2.333378E-11  0.000000E+00  0.000000E+00  0.000000E+00  0.000000E+00  0.000000E+00  0.000000E+00  0.000000E+00  0.000000E+00  4.499843E-03  3.919981E-04 -2.720594E-04  4.474473E-03                                                                                                                                                                                                                                                                                                                                                                                                                                                                                              
  1.250000E+02  1.250000E+02 -5.225000E+03  7.777261E-09 -1.032206E-10 -1.526739E-10  7.775077E-09  4.492448E-11 -5.948445E-13 -8.798358E-13  4.491193E-11  0.000000E+00  0.000000E+00  0.000000E+00  0.000000E+00  0.000000E+00  0.000000E+00  0.000000E+00  0.000000E+00  8.389048E-03 -1.075840E-04 -1.591277E-04  8.386848E-03                                                                                                                                                                                                                                                                                                                                                                                                                                                                                              
  3.750000E+02  1.250000E+02 -5.225000E+03  7.423561E-09 -9.581508E-11 -1.806346E-10  7.420745E-09  4.289012E-11 -5.521675E-13 -1.040968E-12  4.287393E-11  0.000000E+00  0.000000E+00  0.000000E+00  0.000000E+00  0.000000E+00  0.000000E+00  0.000000E+00  0.000000E+00  8.014039E-03 -9.986539E-05 -1.882706E-04  8.011205E-03                                                                                                                                                                                                                                                                                                                                                                                                                                                                                              
  6.250000E+02  1.250000E+02 -5.225000E+03  7.034682E-09  4.061038E-10 -2.220486E-10  7.019439E-09  4.065488E-11  2.340315E-12 -1.279633E-12  4.056729E-11  0.000000E+00  0.000000E+00  0.000000E+00  0.000000E+00  0.000000E+00  0.000000E+00  0.000000E+00  0.000000E+00  7.602194E-03  4.232718E-04 -2.314371E-04  7.586872E-03                                                                                                                                                                                                                                                                                                                                                                                                                                                                                              
  7.600000E+02  1.250000E+02 -5.225000E+03  7.258246E-09  8.228198E-10 -2.437875E-10  7.207335E-09  4.194078E-11  4.741789E-12 -1.404911E-12  4.164818E-11  0.000000E+00  0.000000E+00  0.000000E+00  0.000000E+00  0.000000E+00  0.000000E+00  0.000000E+00  0.000000E+00  7.837427E-03  8.576051E-04 -2.540947E-04  7.786220E-03                                                                                                                                                                                                                                                                                                                                                                                                                                                                                              
  7.800000E+02  1.250000E+02 -5.225000E+03  7.298259E-09  8.724214E-10 -2.469823E-10  7.241717E-09  4.217087E-11  5.027639E-12 -1.423323E-12  4.184590E-11  0.000000E+00  0.000000E+00  0.000000E+00  0.000000E+00  0.000000E+00  0.000000E+00  0.000000E+00  0.000000E+00  7.879524E-03  9.093045E-04 -2.574246E-04  7.822646E-03                                                                                                                                                                                                                                                                                                                                                                                                                                                                                              
  8.000000E+02  1.250000E+02 -5.225000E+03  7.355773E-09  9.182622E-10 -2.501516E-10  7.293944E-09  4.250137E-11  5.291814E-12 -1.441587E-12  4.214600E-11  0.000000E+00  0.000000E+00  0.000000E+00  0.000000E+00  0.000000E+00  0.000000E+00  0.000000E+00  0.000000E+00  7.939956E-03  9.570835E-04 -2.607278E-04  7.877748E-03                                                                                                                                                                                                                                                                                                                                                                                                                                                                                              
  9.350000E+02  1.250000E+02 -5.225000E+03  7.669956E-09  1.062376E-09 -2.708804E-10  7.591193E-09  4.430784E-11  6.122334E-12 -1.561046E-12  4.385504E-11  0.000000E+00  0.000000E+00  0.000000E+00  0.000000E+00  0.000000E+00  0.000000E+00  0.000000E+00  0.000000E+00  8.271724E-03  1.107291E-03 -2.823325E-04  8.192412E-03                                                                                                                                                                                                                                                                                                                                                                                                                                                                                              
  1.185000E+03  1.250000E+02 -5.225000E+03  8.297123E-09  1.025913E-09 -3.063245E-10  8.227753E-09  4.791634E-11  5.912223E-12 -1.765312E-12  4.751742E-11  0.000000E+00  0.000000E+00  0.000000E+00  0.000000E+00  0.000000E+00  0.000000E+00  0.000000E+00  0.000000E+00  8.937944E-03  1.069292E-03 -3.192765E-04  8.868006E-03                                                                                                                                                                                                                                                                                                                                                                                                                                                                                              
  1.435000E+03  1.250000E+02 -5.225000E+03  8.789185E-09  4.334992E-10 -3.126340E-10  8.772919E-09  5.074716E-11  2.498215E-12 -1.801681E-12  5.065360E-11  0.000000E+00  0.000000E+00  0.000000E+00  0.000000E+00  0.000000E+00  0.000000E+00  0.000000E+00  0.000000E+00  9.462684E-03  4.518319E-04 -3.258559E-04  9.446272E-03                                                                                                                                                                                                                                                                                                                                                                                                                                                                                              
  1.250000E+02  1.250000E+02 -4.975000E+03  8.701280E-09 -3.513789E-10 -2.691913E-10  8.690014E-09  4.947859E-11 -1.998071E-12 -1.530724E-12  4.941452E-11  0.000000E+00  0.000000E+00  0.000000E+00  0.000000E+00  0.000000E+00  0.000000E+00  0.000000E+00  0.000000E+00  8.841551E-03 -3.491366E-04 -2.674760E-04  8.830605E-03                                                                                                                                                                                                                                                                                                                                                                                                                                                                                              
  3.750000E+02  1.250000E+02 -4.975000E+03  7.874139E-09 -6.442217E-10 -3.703082E-10  7.838999E-09  4.477875E-11 -3.663271E-12 -2.105697E-12  4.457895E-11  0.000000E+00  0.000000E+00  0.000000E+00  0.000000E+00  0.000000E+00  0.000000E+00  0.000000E+00  0.000000E+00  8.005860E-03 -6.401026E-04 -3.679403E-04  7.971743E-03                                                                                                                                                                                                                                                                                                                                                                                                                                                                                              
  6.250000E+02  1.250000E+02 -4.975000E+03  6.486697E-09  3.453799E-10 -5.050309E-10  6.457778E-09  3.690773E-11  1.963930E-12 -2.871750E-12  3.674339E-11  0.000000E+00  0.000000E+00  0.000000E+00  0.000000E+00  0.000000E+00  0.000000E+00  0.000000E+00  0.000000E+00  6.611661E-03  3.431664E-04 -5.017878E-04  6.583654E-03                                                                                                                                                                                                                                                                                                                                                                                                                                                                                              
  7.600000E+02  1.250000E+02 -4.975000E+03  6.696736E-09  1.371433E-09 -5.521835E-10  6.531504E-09  3.810958E-11  7.798394E-12 -3.139875E-12  3.717077E-11  0.000000E+00  0.000000E+00  0.000000E+00  0.000000E+00  0.000000E+00  0.000000E+00  0.000000E+00  0.000000E+00  6.823792E-03  1.362645E-03 -5.486347E-04  6.663807E-03                                                                                                                                                                                                                                                                                                                                                                                                                                                                                              
  7.800000E+02  1.250000E+02 -4.975000E+03  6.733962E-09  1.566776E-09 -5.598340E-10  6.525185E-09  3.832319E-11  8.909197E-12 -3.183379E-12  3.713703E-11  0.000000E+00  0.000000E+00  0.000000E+00  0.000000E+00  0.000000E+00  0.000000E+00  0.000000E+00  0.000000E+00  6.860959E-03  1.556738E-03 -5.562371E-04  6.658823E-03                                                                                                                                                                                                                                                                                                                                                                                                                                                                                              
  8.000000E+02  1.250000E+02 -4.975000E+03  7.728226E-09  1.695699E-09 -5.688462E-10  7.518411E-09  4.394946E-11  9.642337E-12 -3.234639E-12  4.275649E-11  0.000000E+00  0.000000E+00  0.000000E+00  0.000000E+00  0.000000E+00  0.000000E+00  0.000000E+00  0.000000E+00  7.851653E-03  1.684855E-03 -5.651934E-04  7.647894E-03                                                                                                                                                                                                                                                                                                                                                                                                                                                                                              
  9.350000E+02  1.250000E+02 -4.975000E+03  8.458364E-09  1.875140E-09 -6.035955E-10  8.225779E-09  4.809724E-11  1.066279E-11 -3.432259E-12  4.677466E-11  0.000000E+00  0.000000E+00  0.000000E+00  0.000000E+00  0.000000E+00  0.000000E+00  0.000000E+00  0.000000E+00  8.588181E-03  1.863186E-03 -5.997371E-04  8.362159E-03                                                                                                                                                                                                                                                                                                                                                                                                                                                                                              
  1.185000E+03  1.250000E+02 -4.975000E+03  9.815123E-09  1.808099E-09 -6.789256E-10  9.623226E-09  5.580738E-11  1.028169E-11 -3.860667E-12  5.471605E-11  0.000000E+00  0.000000E+00  0.000000E+00  0.000000E+00  0.000000E+00  0.000000E+00  0.000000E+00  0.000000E+00  9.960810E-03  1.796621E-03 -6.746073E-04  9.774191E-03                                                                                                                                                                                                                                                                                                                                                                                                                                                                                              
  1.435000E+03  1.250000E+02 -4.975000E+03  1.103044E-08  7.950922E-10 -6.359646E-10  1.098335E-08  6.270964E-11  4.521306E-12 -3.616431E-12  6.244180E-11  0.000000E+00  0.000000E+00  0.000000E+00  0.000000E+00  0.000000E+00  0.000000E+00  0.000000E+00  0.000000E+00  1.119198E-02  7.900657E-04 -6.319512E-04  1.114616E-02                                                                                                                                                                                                                                                                                                                                                                                                                                                                                              
  1.250000E+02  1.250000E+02 -4.725000E+03  9.708619E-09 -2.031981E-10 -1.570579E-10  9.705221E-09  5.303763E-11 -1.139865E-12 -8.811282E-13  5.301806E-11  0.000000E+00  0.000000E+00  0.000000E+00  0.000000E+00  0.000000E+00  0.000000E+00  0.000000E+00  0.000000E+00  9.391128E-03 -1.912515E-04 -1.479485E-04  9.388015E-03                                                                                                                                                                                                                                                                                                                                                                                                                                                                                              
  3.750000E+02  1.250000E+02 -4.725000E+03  8.320752E-09 -3.252606E-10 -2.106982E-10  8.311722E-09  4.547797E-11 -1.824152E-12 -1.181351E-12  4.542601E-11  0.000000E+00  0.000000E+00  0.000000E+00  0.000000E+00  0.000000E+00  0.000000E+00  0.000000E+00  0.000000E+00  8.045273E-03 -3.057703E-04 -1.979064E-04  8.037024E-03                                                                                                                                                                                                                                                                                                                                                                                                                                                                                              
  6.250000E+02  1.250000E+02 -4.725000E+03  5.662804E-09  4.746697E-10 -2.967303E-10  5.635067E-09  3.103537E-11  2.659558E-12 -1.662106E-12  3.087651E-11  0.000000E+00  0.000000E+00  0.000000E+00  0.000000E+00  0.000000E+00  0.000000E+00  0.000000E+00  0.000000E+00  5.479389E-03  4.453340E-04 -2.774627E-04  5.454209E-03                                                                                                                                                                                                                                                                                                                                                                                                                                                                                              
  7.600000E+02  1.250000E+02 -4.725000E+03  5.047739E-09  1.313158E-09 -4.307897E-10  4.854864E-09  2.782715E-11  7.358285E-12 -2.413061E-12  2.672794E-11  0.000000E+00  0.000000E+00  0.000000E+00  0.000000E+00  0.000000E+00  0.000000E+00  0.000000E+00  0.000000E+00  4.892992E-03  1.231898E-03 -4.029284E-04  4.718203E-03                                                                                                                                                                                                                                                                                                                                                                                                                                                                                              
  7.800000E+02  1.250000E+02 -4.725000E+03  4.930026E-09  1.565473E-09 -4.562008E-10  4.652562E-09  2.722591E-11  8.773487E-12 -2.555439E-12  2.564655E-11  0.000000E+00  0.000000E+00  0.000000E+00  0.000000E+00  0.000000E+00  0.000000E+00  0.000000E+00  0.000000E+00  4.777791E-03  1.468426E-03 -4.267877E-04  4.526462E-03                                                                                                                                                                                                                                                                                                                                                                                                                                                                                              
  8.000000E+02  1.250000E+02 -4.725000E+03  8.479556E-09  1.693994E-09 -4.880937E-10  8.294276E-09  4.632534E-11  9.497304E-12 -2.735077E-12  4.525879E-11  0.000000E+00  0.000000E+00  0.000000E+00  0.000000E+00  0.000000E+00  0.000000E+00  0.000000E+00  0.000000E+00  8.174768E-03  1.590874E-03 -4.567770E-04  8.005455E-03                                                                                                                                                                                                                                                                                                                                                                                                                                                                                              
  9.350000E+02  1.250000E+02 -4.725000E+03  9.404006E-09  1.882551E-09 -6.760907E-10  9.188810E-09  5.141140E-11  1.055944E-11 -3.790621E-12  5.017232E-11  0.000000E+00  0.000000E+00  0.000000E+00  0.000000E+00  0.000000E+00  0.000000E+00  0.000000E+00  0.000000E+00  9.074671E-03  1.771322E-03 -6.347308E-04  8.877454E-03                                                                                                                                                                                                                                                                                                                                                                                                                                                                                              
  1.185000E+03  1.250000E+02 -4.725000E+03  1.175102E-08  2.135842E-09 -1.024625E-09  1.150977E-08  6.420799E-11  1.198549E-11 -5.748183E-12  6.281697E-11  0.000000E+00  0.000000E+00  0.000000E+00  0.000000E+00  0.000000E+00  0.000000E+00  0.000000E+00  0.000000E+00  1.134549E-02  2.013023E-03 -9.643566E-04  1.112375E-02                                                                                                                                                                                                                                                                                                                                                                                                                                                                                              