Title="TOUGHREACT V3.30-OMP flowvector.tec: Liq & Gas Fluxes (kg/s/m^2), Pore Velocities (m/s), & Heat Fluxes (J/s/m2)"                                                                                                                                                                                                                                                                                                                                                                                                                                                                                                                                                                                                                                                                                                         
Variables= "X(m)"     "Y(m)"      "Z(m)"     "FluxLiq"   "FluxLiq_X"   "FluxLiq_Y"   "FluxLiq_Z"   "PorVelLiq"  "PorVelLiqX"  "PorVelLiqY"  "PorVelLiqZ"     "FluxGas"   "FluxGas_X"   "FluxGas_Y"   "FluxGas_Z"   "PorVelGas"  "PorVelGasX"  "PorVelGasY"  "PorVelGasZ"    "HeatFlux"  "HeatFlux_X"  "HeatFlux_Y"  "HeatFlux_Z"                                                                                                                                                                                                                                                                                                                                                                                                                                                                                                
Zone T= "6.70000000E+09 sec" I=     9 J=    10 K=    23 F=Point
  1.250000E+02  1.250000E+02 -5.425000E+03  1.772360E-08  1.596668E-10  2.341464E-10 -1.772134E-08  1.030625E-10  9.349731E-13  1.371108E-12 -1.030492E-10  0.000000E+00  0.000000E+00  0.000000E+00  0.000000E+00  0.000000E+00  0.000000E+00  0.000000E+00  0.000000E+00  1.846349E-02  1.735441E-04  2.544970E-04 -1.846092E-02                                                                                                                                                                                                                                                                                                                                                                                                                                                                                              
  3.750000E+02  1.250000E+02 -5.425000E+03  1.766416E-08  3.590276E-10  2.450514E-10 -1.765881E-08  1.027173E-10  2.102386E-12  1.434968E-12 -1.026857E-10  0.000000E+00  0.000000E+00  0.000000E+00  0.000000E+00  0.000000E+00  0.000000E+00  0.000000E+00  0.000000E+00  1.840190E-02  3.902325E-04  2.663504E-04 -1.839584E-02                                                                                                                                                                                                                                                                                                                                                                                                                                                                                              
  6.250000E+02  1.250000E+02 -5.425000E+03  1.760517E-08  3.750760E-10  2.213621E-10 -1.759978E-08  1.023744E-10  2.196364E-12  1.296250E-12 -1.023427E-10  0.000000E+00  0.000000E+00  0.000000E+00  0.000000E+00  0.000000E+00  0.000000E+00  0.000000E+00  0.000000E+00  1.834055E-02  4.076766E-04  2.406026E-04 -1.833444E-02                                                                                                                                                                                                                                                                                                                                                                                                                                                                                              
  7.600000E+02  1.250000E+02 -5.425000E+03  1.758165E-08  3.512549E-10  1.852795E-10 -1.757716E-08  1.022376E-10  2.056874E-12  1.084958E-12 -1.022111E-10  0.000000E+00  0.000000E+00  0.000000E+00  0.000000E+00  0.000000E+00  0.000000E+00  0.000000E+00  0.000000E+00  1.831593E-02  3.817854E-04  2.013836E-04 -1.831084E-02                                                                                                                                                                                                                                                                                                                                                                                                                                                                                              
  7.800000E+02  1.250000E+02 -5.425000E+03  1.757798E-08  3.511673E-10  1.795624E-10 -1.757356E-08  1.022163E-10  2.056361E-12  1.051480E-12 -1.021902E-10  0.000000E+00  0.000000E+00  0.000000E+00  0.000000E+00  0.000000E+00  0.000000E+00  0.000000E+00  0.000000E+00  1.831210E-02  3.816900E-04  1.951695E-04 -1.830708E-02                                                                                                                                                                                                                                                                                                                                                                                                                                                                                              
  8.000000E+02  1.250000E+02 -5.425000E+03  1.757399E-08  3.516051E-10  1.734606E-10 -1.756962E-08  1.021930E-10  2.058925E-12  1.015749E-12 -1.021672E-10  0.000000E+00  0.000000E+00  0.000000E+00  0.000000E+00  0.000000E+00  0.000000E+00  0.000000E+00  0.000000E+00  1.830793E-02  3.821658E-04  1.885374E-04 -1.830297E-02                                                                                                                                                                                                                                                                                                                                                                                                                                                                                              
  9.350000E+02  1.250000E+02 -5.425000E+03  1.754580E-08  3.791342E-10  1.295995E-10 -1.754122E-08  1.020291E-10  2.220129E-12  7.589074E-13 -1.020021E-10  0.000000E+00  0.000000E+00  0.000000E+00  0.000000E+00  0.000000E+00  0.000000E+00  0.000000E+00  0.000000E+00  1.827854E-02  4.120874E-04  1.408638E-04 -1.827335E-02                                                                                                                                                                                                                                                                                                                                                                                                                                                                                              
  1.185000E+03  1.250000E+02 -5.425000E+03  1.740127E-08  4.099092E-10 -2.462714E-11 -1.739642E-08  1.011887E-10  2.400341E-12 -1.442113E-13 -1.011601E-10  0.000000E+00  0.000000E+00  0.000000E+00  0.000000E+00  0.000000E+00  0.000000E+00  0.000000E+00  0.000000E+00  1.812798E-02  4.455367E-04 -2.676762E-05 -1.812248E-02                                                                                                                                                                                                                                                                                                                                                                                                                                                                                              
  1.435000E+03  1.250000E+02 -5.425000E+03  1.716124E-08  2.067525E-10 -1.636989E-10 -1.715921E-08  9.979283E-11  1.210699E-12 -9.585857E-13 -9.978088E-11  0.000000E+00  0.000000E+00  0.000000E+00  0.000000E+00  0.000000E+00  0.000000E+00  0.000000E+00  0.000000E+00  1.787769E-02  2.247223E-04 -1.779266E-04 -1.787540E-02                                                                                                                                                                                                                                                                                                                                                                                                                                                                                              
  1.250000E+02  1.250000E+02 -5.225000E+03  7.063296E-08  2.045404E-10  2.691788E-10 -7.063215E-08  4.066214E-10  1.182197E-12  1.555792E-12 -4.066167E-10  0.000000E+00  0.000000E+00  0.000000E+00  0.000000E+00  0.000000E+00  0.000000E+00  0.000000E+00  0.000000E+00  7.101114E-02  2.130766E-04  2.804128E-04 -7.101027E-02                                                                                                                                                                                                                                                                                                                                                                                                                                                                                              
  3.750000E+02  1.250000E+02 -5.225000E+03  7.039734E-08  4.438537E-10  3.125608E-10 -7.039525E-08  4.052651E-10  2.565376E-12  1.806534E-12 -4.052530E-10  0.000000E+00  0.000000E+00  0.000000E+00  0.000000E+00  0.000000E+00  0.000000E+00  0.000000E+00  0.000000E+00  7.077389E-02  4.623782E-04  3.256061E-04 -7.077163E-02                                                                                                                                                                                                                                                                                                                                                                                                                                                                                              
  6.250000E+02  1.250000E+02 -5.225000E+03  7.018164E-08  4.465378E-10  2.868075E-10 -7.017964E-08  4.040234E-10  2.580893E-12  1.657691E-12 -4.040118E-10  0.000000E+00  0.000000E+00  0.000000E+00  0.000000E+00  0.000000E+00  0.000000E+00  0.000000E+00  0.000000E+00  7.055639E-02  4.651761E-04  2.987796E-04 -7.055423E-02                                                                                                                                                                                                                                                                                                                                                                                                                                                                                              
  7.600000E+02  1.250000E+02 -5.225000E+03  7.013457E-08  4.170748E-10  2.471993E-10 -7.013290E-08  4.037514E-10  2.410605E-12  1.428762E-12 -4.037417E-10  0.000000E+00  0.000000E+00  0.000000E+00  0.000000E+00  0.000000E+00  0.000000E+00  0.000000E+00  0.000000E+00  7.050820E-02  4.344841E-04  2.575176E-04 -7.050639E-02                                                                                                                                                                                                                                                                                                                                                                                                                                                                                              
  7.800000E+02  1.250000E+02 -5.225000E+03  7.012570E-08  4.230462E-10  2.407345E-10 -7.012401E-08  4.037001E-10  2.445118E-12  1.391396E-12 -4.036903E-10  0.000000E+00  0.000000E+00  0.000000E+00  0.000000E+00  0.000000E+00  0.000000E+00  0.000000E+00  0.000000E+00  7.049913E-02  4.407044E-04  2.507828E-04 -7.049731E-02                                                                                                                                                                                                                                                                                                                                                                                                                                                                                              
  8.000000E+02  1.250000E+02 -5.225000E+03  7.010759E-08  4.298511E-10  2.336239E-10 -7.010588E-08  4.035966E-10  2.484449E-12  1.350299E-12 -4.035867E-10  0.000000E+00  0.000000E+00  0.000000E+00  0.000000E+00  0.000000E+00  0.000000E+00  0.000000E+00  0.000000E+00  7.048177E-02  4.477931E-04  2.433754E-04 -7.047993E-02                                                                                                                                                                                                                                                                                                                                                                                                                                                                                              
  9.350000E+02  1.250000E+02 -5.225000E+03  7.002355E-08  5.327462E-10  1.812211E-10 -7.002129E-08  4.031122E-10  3.079160E-12  1.047420E-12 -4.030991E-10  0.000000E+00  0.000000E+00  0.000000E+00  0.000000E+00  0.000000E+00  0.000000E+00  0.000000E+00  0.000000E+00  7.039693E-02  5.549822E-04  1.887848E-04 -7.039449E-02                                                                                                                                                                                                                                                                                                                                                                                                                                                                                              
  1.185000E+03  1.250000E+02 -5.225000E+03  6.937273E-08  7.084053E-10 -7.676383E-11 -6.936907E-08  3.993682E-10  4.094434E-12 -4.436788E-13 -3.993470E-10  0.000000E+00  0.000000E+00  0.000000E+00  0.000000E+00  0.000000E+00  0.000000E+00  0.000000E+00  0.000000E+00  6.974424E-02  7.379717E-04 -7.996768E-05 -6.974029E-02                                                                                                                                                                                                                                                                                                                                                                                                                                                                                              
  1.435000E+03  1.250000E+02 -5.225000E+03  6.811951E-08  3.923144E-10 -3.239923E-10 -6.811761E-08  3.921615E-10  2.267496E-12 -1.872608E-12 -3.921504E-10  0.000000E+00  0.000000E+00  0.000000E+00  0.000000E+00  0.000000E+00  0.000000E+00  0.000000E+00  0.000000E+00  6.848869E-02  4.086880E-04 -3.375145E-04 -6.848664E-02                                                                                                                                                                                                                                                                                                                                                                                                                                                                                              
  1.250000E+02  1.250000E+02 -4.975000E+03  1.398352E-07  3.755600E-10  3.849778E-10 -1.398342E-07  7.955880E-10  2.141454E-12  2.195156E-12 -7.955821E-10  0.000000E+00  0.000000E+00  0.000000E+00  0.000000E+00  0.000000E+00  0.000000E+00  0.000000E+00  0.000000E+00  1.345320E-01  3.729943E-04  3.823478E-04 -1.345309E-01                                                                                                                                                                                                                                                                                                                                                                                                                                                                                              
  3.750000E+02  1.250000E+02 -4.975000E+03  1.394733E-07  7.666799E-10  6.593025E-10 -1.394696E-07  7.934393E-10  4.371629E-12  3.759364E-12 -7.934184E-10  0.000000E+00  0.000000E+00  0.000000E+00  0.000000E+00  0.000000E+00  0.000000E+00  0.000000E+00  0.000000E+00  1.340650E-01  7.614395E-04  6.547938E-04 -1.340612E-01                                                                                                                                                                                                                                                                                                                                                                                                                                                                                              
  6.250000E+02  1.250000E+02 -4.975000E+03  1.389860E-07  6.428184E-10  5.953107E-10 -1.389832E-07  7.904994E-10  3.665364E-12  3.394480E-12 -7.904836E-10  0.000000E+00  0.000000E+00  0.000000E+00  0.000000E+00  0.000000E+00  0.000000E+00  0.000000E+00  0.000000E+00  1.333687E-01  6.384201E-04  5.912340E-04 -1.333659E-01                                                                                                                                                                                                                                                                                                                                                                                                                                                                                              
  7.600000E+02  1.250000E+02 -4.975000E+03  1.393459E-07  5.303464E-10  5.688971E-10 -1.393438E-07  7.925340E-10  3.024044E-12  3.243863E-12 -7.925216E-10  0.000000E+00  0.000000E+00  0.000000E+00  0.000000E+00  0.000000E+00  0.000000E+00  0.000000E+00  0.000000E+00  1.337066E-01  5.267130E-04  5.649982E-04 -1.337044E-01                                                                                                                                                                                                                                                                                                                                                                                                                                                                                              
  7.800000E+02  1.250000E+02 -4.975000E+03  1.394327E-07  5.929485E-10  5.633945E-10 -1.394303E-07  7.930212E-10  3.381005E-12  3.212487E-12 -7.930075E-10  0.000000E+00  0.000000E+00  0.000000E+00  0.000000E+00  0.000000E+00  0.000000E+00  0.000000E+00  0.000000E+00  1.337841E-01  5.888844E-04  5.595326E-04 -1.337817E-01                                                                                                                                                                                                                                                                                                                                                                                                                                                                                              
  8.000000E+02  1.250000E+02 -4.975000E+03  1.389675E-07  6.316828E-10  5.555928E-10 -1.389649E-07  7.905036E-10  3.601876E-12  3.168009E-12 -7.904891E-10  0.000000E+00  0.000000E+00  0.000000E+00  0.000000E+00  0.000000E+00  0.000000E+00  0.000000E+00  0.000000E+00  1.334986E-01  6.273577E-04  5.517931E-04 -1.334960E-01                                                                                                                                                                                                                                                                                                                                                                                                                                                                                              
  9.350000E+02  1.250000E+02 -4.975000E+03  1.392040E-07  1.131009E-09  5.038564E-10 -1.391985E-07  7.919000E-10  6.449072E-12  2.873012E-12 -7.918686E-10  0.000000E+00  0.000000E+00  0.000000E+00  0.000000E+00  0.000000E+00  0.000000E+00  0.000000E+00  0.000000E+00  1.338022E-01  1.123274E-03  5.004104E-04 -1.337966E-01                                                                                                                                                                                                                                                                                                                                                                                                                                                                                              
  1.185000E+03  1.250000E+02 -4.975000E+03  1.372822E-07  2.208448E-09 -3.366956E-10 -1.372640E-07  7.810936E-10  1.259274E-11 -1.919860E-12 -7.809897E-10  0.000000E+00  0.000000E+00  0.000000E+00  0.000000E+00  0.000000E+00  0.000000E+00  0.000000E+00  0.000000E+00  1.321066E-01  2.193360E-03 -3.343947E-04 -1.320880E-01                                                                                                                                                                                                                                                                                                                                                                                                                                                                                              
  1.435000E+03  1.250000E+02 -4.975000E+03  1.323144E-07  1.394820E-09 -1.164506E-09 -1.323019E-07  7.529698E-10  7.953391E-12 -6.640126E-12 -7.528986E-10  0.000000E+00  0.000000E+00  0.000000E+00  0.000000E+00  0.000000E+00  0.000000E+00  0.000000E+00  0.000000E+00  1.274570E-01  1.385297E-03 -1.156563E-03 -1.274443E-01                                                                                                                                                                                                                                                                                                                                                                                                                                                                                              
  1.250000E+02  1.250000E+02 -4.725000E+03  2.088987E-07  9.834533E-10  5.797596E-10 -2.088956E-07  1.151265E-09  5.531466E-12  3.261166E-12 -1.151247E-09  0.000000E+00  0.000000E+00  0.000000E+00  0.000000E+00  0.000000E+00  0.000000E+00  0.000000E+00  0.000000E+00  1.543809E-01  9.275414E-04  5.467988E-04 -1.543771E-01                                                                                                                                                                                                                                                                                                                                                                                                                                                                                              
  3.750000E+02  1.250000E+02 -4.725000E+03  2.111111E-07  2.532173E-09  2.437687E-09 -2.110819E-07  1.157559E-09  1.423757E-11  1.370553E-11 -1.157390E-09  0.000000E+00  0.000000E+00  0.000000E+00  0.000000E+00  0.000000E+00  0.000000E+00  0.000000E+00  0.000000E+00  1.444018E-01  2.386127E-03  2.295816E-03 -1.443639E-01                                                                                                                                                                                                                                                                                                                                                                                                                                                                                              
  6.250000E+02  1.250000E+02 -4.725000E+03  2.083115E-07  1.068945E-09  2.329708E-09 -2.082958E-07  1.138944E-09  6.009985E-12  1.308662E-11 -1.138853E-09  0.000000E+00  0.000000E+00  0.000000E+00  0.000000E+00  0.000000E+00  0.000000E+00  0.000000E+00  0.000000E+00  1.355370E-01  1.007995E-03  2.187955E-03 -1.355156E-01                                                                                                                                                                                                                                                                                                                                                                                                                                                                                              
  7.600000E+02  1.250000E+02 -4.725000E+03  2.082339E-07 -1.194827E-09  2.476673E-09 -2.082157E-07  1.138580E-09 -6.714394E-12  1.391282E-11 -1.138475E-09  0.000000E+00  0.000000E+00  0.000000E+00  0.000000E+00  0.000000E+00  0.000000E+00  0.000000E+00  0.000000E+00  1.355114E-01 -1.122118E-03  2.326021E-03 -1.354868E-01                                                                                                                                                                                                                                                                                                                                                                                                                                                                                              
  7.800000E+02  1.250000E+02 -4.725000E+03  2.080018E-07 -1.700671E-09  2.505595E-09 -2.079798E-07  1.137249E-09 -9.558237E-12  1.407562E-11 -1.137122E-09  0.000000E+00  0.000000E+00  0.000000E+00  0.000000E+00  0.000000E+00  0.000000E+00  0.000000E+00  0.000000E+00  1.351689E-01 -1.598877E-03  2.353080E-03 -1.351389E-01                                                                                                                                                                                                                                                                                                                                                                                                                                                                                              
  8.000000E+02  1.250000E+02 -4.725000E+03  2.124308E-07 -1.782840E-09  2.548260E-09 -2.124081E-07  1.164547E-09 -1.002265E-11  1.431922E-11 -1.164416E-09  0.000000E+00  0.000000E+00  0.000000E+00  0.000000E+00  0.000000E+00  0.000000E+00  0.000000E+00  0.000000E+00  1.451705E-01 -1.678210E-03  2.397608E-03 -1.451410E-01                                                                                                                                                                                                                                                                                                                                                                                                                                                                                              
  9.350000E+02  1.250000E+02 -4.725000E+03  2.128092E-07  9.027772E-10  2.631595E-09 -2.127910E-07  1.168664E-09  5.079655E-12  1.479535E-11 -1.168559E-09  0.000000E+00  0.000000E+00  0.000000E+00  0.000000E+00  0.000000E+00  0.000000E+00  0.000000E+00  0.000000E+00  1.495146E-01  8.502774E-04  2.478558E-03 -1.494916E-01                                                                                                                                                                                                                                                                                                                                                                                                                                                                                              
  1.185000E+03  1.250000E+02 -4.725000E+03  2.056760E-07  6.666157E-09 -9.267006E-10 -2.055659E-07  1.137418E-09  3.750688E-11 -5.212797E-12 -1.136787E-09  0.000000E+00  0.000000E+00  0.000000E+00  0.000000E+00  0.000000E+00  0.000000E+00  0.000000E+00  0.000000E+00  1.592787E-01  6.286580E-03 -8.730535E-04 -1.591521E-01                                                                                                                                                                                                                                                                                                                                                                                                                                                                                              