Title="TOUGHREACT V3.30-OMP flowvector.tec: Liq & Gas Fluxes (kg/s/m^2), Pore Velocities (m/s), & Heat Fluxes (J/s/m2)"                                                                                                                                                                                                                                                                                                                                                                                                                                                                                                                                                                                                                                                                                                         
Variables= "X(m)"     "Y(m)"      "Z(m)"     "FluxLiq"   "FluxLiq_X"   "FluxLiq_Y"   "FluxLiq_Z"   "PorVelLiq"  "PorVelLiqX"  "PorVelLiqY"  "PorVelLiqZ"     "FluxGas"   "FluxGas_X"   "FluxGas_Y"   "FluxGas_Z"   "PorVelGas"  "PorVelGasX"  "PorVelGasY"  "PorVelGasZ"    "HeatFlux"  "HeatFlux_X"  "HeatFlux_Y"  "HeatFlux_Z"                                                                                                                                                                                                                                                                                                                                                                                                                                                                                                
Zone T= "3.33000000E+10 sec" I=     9 J=    10 K=    23 F=Point
  1.250000E+02  1.250000E+02 -5.425000E+03  3.700529E-09 -9.126562E-12 -1.387789E-10  3.697915E-09  2.155125E-11 -5.368056E-14 -8.162684E-13  2.153572E-11  0.000000E+00  0.000000E+00  0.000000E+00  0.000000E+00  0.000000E+00  0.000000E+00  0.000000E+00  0.000000E+00  4.113739E-03 -1.014567E-05 -1.542754E-04  4.110833E-03                                                                                                                                                                                                                                                                                                                                                                                                                                                                                              
  3.750000E+02  1.250000E+02 -5.425000E+03  3.618415E-09  1.336417E-10 -1.578859E-10  3.612498E-09  2.107342E-11  7.860534E-13 -9.286525E-13  2.103827E-11  0.000000E+00  0.000000E+00  0.000000E+00  0.000000E+00  0.000000E+00  0.000000E+00  0.000000E+00  0.000000E+00  4.022463E-03  1.485647E-04 -1.755165E-04  4.015885E-03                                                                                                                                                                                                                                                                                                                                                                                                                                                                                              
  6.250000E+02  1.250000E+02 -5.425000E+03  3.592060E-09  5.977892E-10 -1.925999E-10  3.536729E-09  2.092568E-11  3.516077E-12 -1.132834E-12  2.059704E-11  0.000000E+00  0.000000E+00  0.000000E+00  0.000000E+00  0.000000E+00  0.000000E+00  0.000000E+00  0.000000E+00  3.993175E-03  6.645421E-04 -2.141076E-04  3.931665E-03                                                                                                                                                                                                                                                                                                                                                                                                                                                                                              
  7.600000E+02  1.250000E+02 -5.425000E+03  3.719217E-09  9.292840E-10 -2.182638E-10  3.594631E-09  2.167412E-11  5.465866E-12 -1.283785E-12  2.093427E-11  0.000000E+00  0.000000E+00  0.000000E+00  0.000000E+00  0.000000E+00  0.000000E+00  0.000000E+00  0.000000E+00  4.134529E-03  1.033054E-03 -2.426371E-04  3.996030E-03                                                                                                                                                                                                                                                                                                                                                                                                                                                                                              
  7.800000E+02  1.250000E+02 -5.425000E+03  3.738287E-09  9.667991E-10 -2.221088E-10  3.604269E-09  2.178623E-11  5.686525E-12 -1.306401E-12  2.099040E-11  0.000000E+00  0.000000E+00  0.000000E+00  0.000000E+00  0.000000E+00  0.000000E+00  0.000000E+00  0.000000E+00  4.155727E-03  1.074758E-03 -2.469115E-04  4.006744E-03                                                                                                                                                                                                                                                                                                                                                                                                                                                                                              
  8.000000E+02  1.250000E+02 -5.425000E+03  3.758157E-09  1.002211E-09 -2.259921E-10  3.615002E-09  2.190298E-11  5.894812E-12 -1.329241E-12  2.105291E-11  0.000000E+00  0.000000E+00  0.000000E+00  0.000000E+00  0.000000E+00  0.000000E+00  0.000000E+00  0.000000E+00  4.177815E-03  1.114124E-03 -2.512283E-04  4.018676E-03                                                                                                                                                                                                                                                                                                                                                                                                                                                                                              
  9.350000E+02  1.250000E+02 -5.425000E+03  3.869962E-09  1.129460E-09 -2.524194E-10  3.692859E-09  2.255793E-11  6.643267E-12 -1.484682E-12  2.150635E-11  0.000000E+00  0.000000E+00  0.000000E+00  0.000000E+00  0.000000E+00  0.000000E+00  0.000000E+00  0.000000E+00  4.302102E-03  1.255582E-03 -2.806064E-04  4.105223E-03                                                                                                                                                                                                                                                                                                                                                                                                                                                                                              
  1.185000E+03  1.250000E+02 -5.425000E+03  4.046563E-09  1.062402E-09 -3.002388E-10  3.893049E-09  2.358388E-11  6.248853E-12 -1.765949E-12  2.267228E-11  0.000000E+00  0.000000E+00  0.000000E+00  0.000000E+00  0.000000E+00  0.000000E+00  0.000000E+00  0.000000E+00  4.498420E-03  1.181035E-03 -3.337648E-04  4.327764E-03                                                                                                                                                                                                                                                                                                                                                                                                                                                                                              
  1.435000E+03  1.250000E+02 -5.425000E+03  4.103158E-09  4.426174E-10 -3.247062E-10  4.066271E-09  2.390027E-11  2.603396E-12 -1.909864E-12  2.368117E-11  0.000000E+00  0.000000E+00  0.000000E+00  0.000000E+00  0.000000E+00  0.000000E+00  0.000000E+00  0.000000E+00  4.561338E-03  4.920420E-04 -3.609642E-04  4.520332E-03                                                                                                                                                                                                                                                                                                                                                                                                                                                                                              
  1.250000E+02  1.250000E+02 -5.225000E+03  7.627960E-09 -7.450580E-11 -1.675277E-10  7.625756E-09  4.404426E-11 -4.293644E-13 -9.654339E-13  4.403159E-11  0.000000E+00  0.000000E+00  0.000000E+00  0.000000E+00  0.000000E+00  0.000000E+00  0.000000E+00  0.000000E+00  8.206845E-03 -7.765347E-05 -1.746053E-04  8.204620E-03                                                                                                                                                                                                                                                                                                                                                                                                                                                                                              
  3.750000E+02  1.250000E+02 -5.225000E+03  7.262057E-09  3.253776E-12 -1.995066E-10  7.259316E-09  4.194033E-11  1.875112E-14 -1.149723E-12  4.192456E-11  0.000000E+00  0.000000E+00  0.000000E+00  0.000000E+00  0.000000E+00  0.000000E+00  0.000000E+00  0.000000E+00  7.819538E-03  3.391240E-06 -2.079356E-04  7.816772E-03                                                                                                                                                                                                                                                                                                                                                                                                                                                                                              
  6.250000E+02  1.250000E+02 -5.225000E+03  6.899287E-09  5.989177E-10 -2.527432E-10  6.868594E-09  3.985590E-11  3.451466E-12 -1.456519E-12  3.967945E-11  0.000000E+00  0.000000E+00  0.000000E+00  0.000000E+00  0.000000E+00  0.000000E+00  0.000000E+00  0.000000E+00  7.435237E-03  6.242222E-04 -2.634235E-04  7.404303E-03                                                                                                                                                                                                                                                                                                                                                                                                                                                                                              
  7.600000E+02  1.250000E+02 -5.225000E+03  7.188453E-09  1.071146E-09 -2.881339E-10  7.102357E-09  4.151893E-11  6.172847E-12 -1.660470E-12  4.102390E-11  0.000000E+00  0.000000E+00  0.000000E+00  0.000000E+00  0.000000E+00  0.000000E+00  0.000000E+00  0.000000E+00  7.738805E-03  1.116404E-03 -3.003092E-04  7.651965E-03                                                                                                                                                                                                                                                                                                                                                                                                                                                                                              
  7.800000E+02  1.250000E+02 -5.225000E+03  7.238466E-09  1.127426E-09 -2.934155E-10  7.144103E-09  4.180650E-11  6.497183E-12 -1.690908E-12  4.126392E-11  0.000000E+00  0.000000E+00  0.000000E+00  0.000000E+00  0.000000E+00  0.000000E+00  0.000000E+00  0.000000E+00  7.791335E-03  1.175062E-03 -3.058139E-04  7.696143E-03                                                                                                                                                                                                                                                                                                                                                                                                                                                                                              
  8.000000E+02  1.250000E+02 -5.225000E+03  7.306292E-09  1.179653E-09 -2.987317E-10  7.204240E-09  4.219628E-11  6.798158E-12 -1.721544E-12  4.160946E-11  0.000000E+00  0.000000E+00  0.000000E+00  0.000000E+00  0.000000E+00  0.000000E+00  0.000000E+00  0.000000E+00  7.862537E-03  1.229496E-03 -3.113546E-04  7.759567E-03                                                                                                                                                                                                                                                                                                                                                                                                                                                                                              
  9.350000E+02  1.250000E+02 -5.225000E+03  7.685544E-09  1.350761E-09 -3.343251E-10  7.558522E-09  4.437670E-11  7.784244E-12 -1.926665E-12  4.364613E-11  0.000000E+00  0.000000E+00  0.000000E+00  0.000000E+00  0.000000E+00  0.000000E+00  0.000000E+00  0.000000E+00  8.262508E-03  1.407835E-03 -3.484513E-04  8.134225E-03                                                                                                                                                                                                                                                                                                                                                                                                                                                                                              
  1.185000E+03  1.250000E+02 -5.225000E+03  8.473693E-09  1.303997E-09 -3.999286E-10  8.363201E-09  4.891014E-11  7.514778E-12 -2.304737E-12  4.827441E-11  0.000000E+00  0.000000E+00  0.000000E+00  0.000000E+00  0.000000E+00  0.000000E+00  0.000000E+00  0.000000E+00  9.098583E-03  1.359102E-03 -4.168280E-04  8.986841E-03                                                                                                                                                                                                                                                                                                                                                                                                                                                                                              
  1.435000E+03  1.250000E+02 -5.225000E+03  9.123256E-09  5.554507E-10 -4.248049E-10  9.096418E-09  5.264535E-11  3.201005E-12 -2.448108E-12  5.249088E-11  0.000000E+00  0.000000E+00  0.000000E+00  0.000000E+00  0.000000E+00  0.000000E+00  0.000000E+00  0.000000E+00  9.790299E-03  5.789261E-04 -4.427595E-04  9.763133E-03                                                                                                                                                                                                                                                                                                                                                                                                                                                                                              
  1.250000E+02  1.250000E+02 -4.975000E+03  8.476328E-09 -3.343734E-10 -2.919341E-10  8.464698E-09  4.819978E-11 -1.901371E-12 -1.660048E-12  4.813364E-11  0.000000E+00  0.000000E+00  0.000000E+00  0.000000E+00  0.000000E+00  0.000000E+00  0.000000E+00  0.000000E+00  8.613018E-03 -3.322340E-04 -2.900688E-04  8.601719E-03                                                                                                                                                                                                                                                                                                                                                                                                                                                                                              
  3.750000E+02  1.250000E+02 -4.975000E+03  7.587598E-09 -5.539309E-10 -3.966847E-10  7.556947E-09  4.315119E-11 -3.149847E-12 -2.255683E-12  4.297692E-11  0.000000E+00  0.000000E+00  0.000000E+00  0.000000E+00  0.000000E+00  0.000000E+00  0.000000E+00  0.000000E+00  7.715752E-03 -5.503809E-04 -3.941418E-04  7.685998E-03                                                                                                                                                                                                                                                                                                                                                                                                                                                                                              
  6.250000E+02  1.250000E+02 -4.975000E+03  6.207710E-09  6.001470E-10 -5.502905E-10  6.154077E-09  3.532476E-11  3.412616E-12 -3.129111E-12  3.502001E-11  0.000000E+00  0.000000E+00  0.000000E+00  0.000000E+00  0.000000E+00  0.000000E+00  0.000000E+00  0.000000E+00  6.328641E-03  5.962913E-04 -5.467489E-04  6.276719E-03                                                                                                                                                                                                                                                                                                                                                                                                                                                                                              
  7.600000E+02  1.250000E+02 -4.975000E+03  6.593456E-09  1.743388E-09 -6.327103E-10  6.327238E-09  3.752416E-11  9.913449E-12 -3.597775E-12  3.601169E-11  0.000000E+00  0.000000E+00  0.000000E+00  0.000000E+00  0.000000E+00  0.000000E+00  0.000000E+00  0.000000E+00  6.715120E-03  1.732189E-03 -6.286345E-04  6.457335E-03                                                                                                                                                                                                                                                                                                                                                                                                                                                                                              
  7.800000E+02  1.250000E+02 -4.975000E+03  6.666770E-09  1.956479E-09 -6.458882E-10  6.340414E-09  3.794256E-11  1.112518E-11 -3.672710E-12  3.608850E-11  0.000000E+00  0.000000E+00  0.000000E+00  0.000000E+00  0.000000E+00  0.000000E+00  0.000000E+00  0.000000E+00  6.788023E-03  1.943912E-03 -6.417287E-04  6.471989E-03                                                                                                                                                                                                                                                                                                                                                                                                                                                                                              
  8.000000E+02  1.250000E+02 -4.975000E+03  7.680937E-09  2.102382E-09 -6.607098E-10  7.358005E-09  4.368191E-11  1.195489E-11 -3.757006E-12  4.184585E-11  0.000000E+00  0.000000E+00  0.000000E+00  0.000000E+00  0.000000E+00  0.000000E+00  0.000000E+00  0.000000E+00  7.799217E-03  2.088904E-03 -6.564571E-04  7.485541E-03                                                                                                                                                                                                                                                                                                                                                                                                                                                                                              
  9.350000E+02  1.250000E+02 -4.975000E+03  8.589048E-09  2.359566E-09 -7.362967E-10  8.225695E-09  4.883928E-11  1.341743E-11 -4.186847E-12  4.677305E-11  0.000000E+00  0.000000E+00  0.000000E+00  0.000000E+00  0.000000E+00  0.000000E+00  0.000000E+00  0.000000E+00  8.714430E-03  2.344482E-03 -7.315781E-04  8.361189E-03                                                                                                                                                                                                                                                                                                                                                                                                                                                                                              
  1.185000E+03  1.250000E+02 -4.975000E+03  1.035410E-08  2.347143E-09 -8.943054E-10  1.004483E-08  5.886634E-11  1.334695E-11 -5.085412E-12  5.710729E-11  0.000000E+00  0.000000E+00  0.000000E+00  0.000000E+00  0.000000E+00  0.000000E+00  0.000000E+00  0.000000E+00  1.049934E-02  2.332200E-03 -8.886008E-04  1.019840E-02                                                                                                                                                                                                                                                                                                                                                                                                                                                                                              
  1.435000E+03  1.250000E+02 -4.975000E+03  1.206944E-08  1.057165E-09 -8.958146E-10  1.198963E-08  6.860345E-11  6.011588E-12 -5.094079E-12  6.814942E-11  0.000000E+00  0.000000E+00  0.000000E+00  0.000000E+00  0.000000E+00  0.000000E+00  0.000000E+00  0.000000E+00  1.223619E-02  1.050460E-03 -8.901430E-04  1.215848E-02                                                                                                                                                                                                                                                                                                                                                                                                                                                                                              
  1.250000E+02  1.250000E+02 -4.725000E+03  9.502769E-09 -2.324397E-10 -2.050453E-10  9.497712E-09  5.190630E-11 -1.303898E-12 -1.150346E-12  5.187717E-11  0.000000E+00  0.000000E+00  0.000000E+00  0.000000E+00  0.000000E+00  0.000000E+00  0.000000E+00  0.000000E+00  9.190392E-03 -2.187694E-04 -1.931484E-04  9.185758E-03                                                                                                                                                                                                                                                                                                                                                                                                                                                                                              
  3.750000E+02  1.250000E+02 -4.725000E+03  7.918140E-09 -3.123380E-10 -2.550725E-10  7.907865E-09  4.328817E-11 -1.751811E-12 -1.430149E-12  4.322906E-11  0.000000E+00  0.000000E+00  0.000000E+00  0.000000E+00  0.000000E+00  0.000000E+00  0.000000E+00  0.000000E+00  7.657120E-03 -2.937287E-04 -2.395823E-04  7.647733E-03                                                                                                                                                                                                                                                                                                                                                                                                                                                                                              
  6.250000E+02  1.250000E+02 -4.725000E+03  5.091870E-09  8.078441E-10 -3.571787E-10  5.014673E-09  2.796683E-11  4.526636E-12 -2.000703E-12  2.752545E-11  0.000000E+00  0.000000E+00  0.000000E+00  0.000000E+00  0.000000E+00  0.000000E+00  0.000000E+00  0.000000E+00  4.931062E-03  7.579051E-04 -3.339823E-04  4.861009E-03                                                                                                                                                                                                                                                                                                                                                                                                                                                                                              
  7.600000E+02  1.250000E+02 -4.725000E+03  4.459888E-09  1.954950E-09 -5.903729E-10  3.964875E-09  2.477628E-11  1.095457E-11 -3.306966E-12  2.197556E-11  0.000000E+00  0.000000E+00  0.000000E+00  0.000000E+00  0.000000E+00  0.000000E+00  0.000000E+00  0.000000E+00  4.323200E-03  1.833946E-03 -5.521845E-04  3.875796E-03                                                                                                                                                                                                                                                                                                                                                                                                                                                                                              
  7.800000E+02  1.250000E+02 -4.725000E+03  4.432564E-09  2.334387E-09 -6.344150E-10  3.714268E-09  2.469739E-11  1.308277E-11 -3.553721E-12  2.064396E-11  0.000000E+00  0.000000E+00  0.000000E+00  0.000000E+00  0.000000E+00  0.000000E+00  0.000000E+00  0.000000E+00  4.288749E-03  2.189639E-03 -5.935049E-04  3.639588E-03                                                                                                                                                                                                                                                                                                                                                                                                                                                                                              
  8.000000E+02  1.250000E+02 -4.725000E+03  8.726935E-09  2.524764E-09 -6.893832E-10  8.325246E-09  4.770415E-11  1.415498E-11 -3.863023E-12  4.539163E-11  0.000000E+00  0.000000E+00  0.000000E+00  0.000000E+00  0.000000E+00  0.000000E+00  0.000000E+00  0.000000E+00  8.396571E-03  2.371028E-03 -6.451438E-04  8.028974E-03                                                                                                                                                                                                                                                                                                                                                                                                                                                                                              
  9.350000E+02  1.250000E+02 -4.725000E+03  9.867873E-09  2.847740E-09 -1.024326E-09  9.392340E-09  5.400123E-11  1.597335E-11 -5.743059E-12  5.126404E-11  0.000000E+00  0.000000E+00  0.000000E+00  0.000000E+00  0.000000E+00  0.000000E+00  0.000000E+00  0.000000E+00  9.505923E-03  2.679454E-03 -9.616463E-04  9.069638E-03                                                                                                                                                                                                                                                                                                                                                                                                                                                                                              
  1.185000E+03  1.250000E+02 -4.725000E+03  1.312624E-08  3.366209E-09 -1.640059E-09  1.258082E-08  7.177051E-11  1.888993E-11 -9.200789E-12  6.862596E-11  0.000000E+00  0.000000E+00  0.000000E+00  0.000000E+00  0.000000E+00  0.000000E+00  0.000000E+00  0.000000E+00  1.265140E-02  3.172655E-03 -1.543560E-03  1.214947E-02                                                                                                                                                                                                                                                                                                                                                                                                                                                                                              