Title="TOUGHREACT V3.30-OMP flowvector.tec: Liq & Gas Fluxes (kg/s/m^2), Pore Velocities (m/s), & Heat Fluxes (J/s/m2)"                                                                                                                                                                                                                                                                                                                                                                                                                                                                                                                                                                                                                                                                                                         
Variables= "X(m)"     "Y(m)"      "Z(m)"     "FluxLiq"   "FluxLiq_X"   "FluxLiq_Y"   "FluxLiq_Z"   "PorVelLiq"  "PorVelLiqX"  "PorVelLiqY"  "PorVelLiqZ"     "FluxGas"   "FluxGas_X"   "FluxGas_Y"   "FluxGas_Z"   "PorVelGas"  "PorVelGasX"  "PorVelGasY"  "PorVelGasZ"    "HeatFlux"  "HeatFlux_X"  "HeatFlux_Y"  "HeatFlux_Z"                                                                                                                                                                                                                                                                                                                                                                                                                                                                                                
Zone T= "3.00000000E+09 sec" I=     9 J=    10 K=    23 F=Point
  1.250000E+02  1.250000E+02 -5.425000E+03  2.899388E-09 -5.168204E-10 -1.764617E-09  2.241757E-09  1.704141E-11 -3.047839E-12 -1.040642E-11  1.314635E-11  0.000000E+00  0.000000E+00  0.000000E+00  0.000000E+00  0.000000E+00  0.000000E+00  0.000000E+00  0.000000E+00  3.138133E-03 -5.593777E-04 -1.909923E-03  2.426349E-03                                                                                                                                                                                                                                                                                                                                                                                                                                                                                              
  3.750000E+02  1.250000E+02 -5.425000E+03  2.214177E-09  1.137765E-11 -1.707819E-09  1.409185E-09  1.302807E-11  6.709912E-14 -1.007146E-11  8.263882E-12  0.000000E+00  0.000000E+00  0.000000E+00  0.000000E+00  0.000000E+00  0.000000E+00  0.000000E+00  0.000000E+00  2.396505E-03  1.231453E-05 -1.848453E-03  1.525223E-03                                                                                                                                                                                                                                                                                                                                                                                                                                                                                              
  6.250000E+02  1.250000E+02 -5.425000E+03  3.710154E-09  3.210555E-09 -1.669777E-09  8.181830E-10  2.187395E-11  1.893361E-11 -9.847141E-12  4.798082E-12  0.000000E+00  0.000000E+00  0.000000E+00  0.000000E+00  0.000000E+00  0.000000E+00  0.000000E+00  0.000000E+00  4.015673E-03  3.474932E-03 -1.807283E-03  8.855574E-04                                                                                                                                                                                                                                                                                                                                                                                                                                                                                              
  7.600000E+02  1.250000E+02 -5.425000E+03  5.857612E-09  5.509998E-09 -1.716307E-09  1.002908E-09  3.453853E-11  3.249419E-11 -1.012158E-11  5.881389E-12  0.000000E+00  0.000000E+00  0.000000E+00  0.000000E+00  0.000000E+00  0.000000E+00  0.000000E+00  0.000000E+00  6.339961E-03  5.963722E-03 -1.857642E-03  1.085492E-03                                                                                                                                                                                                                                                                                                                                                                                                                                                                                              
  7.800000E+02  1.250000E+02 -5.425000E+03  6.134701E-09  5.795713E-09 -1.723726E-09  1.035878E-09  3.617258E-11  3.417922E-11 -1.016534E-11  6.074739E-12  0.000000E+00  0.000000E+00  0.000000E+00  0.000000E+00  0.000000E+00  0.000000E+00  0.000000E+00  0.000000E+00  6.639864E-03  6.272960E-03 -1.865671E-03  1.121177E-03                                                                                                                                                                                                                                                                                                                                                                                                                                                                                              
  8.000000E+02  1.250000E+02 -5.425000E+03  6.403785E-09  6.070888E-09 -1.731626E-09  1.074361E-09  3.775930E-11  3.580204E-11 -1.021193E-11  6.300422E-12  0.000000E+00  0.000000E+00  0.000000E+00  0.000000E+00  0.000000E+00  0.000000E+00  0.000000E+00  0.000000E+00  6.931103E-03  6.570793E-03 -1.874220E-03  1.162829E-03                                                                                                                                                                                                                                                                                                                                                                                                                                                                                              
  9.350000E+02  1.250000E+02 -5.425000E+03  7.679631E-09  7.341883E-09 -1.787854E-09  1.370060E-09  4.528144E-11  4.329767E-11 -1.054357E-11  8.034534E-12  0.000000E+00  0.000000E+00  0.000000E+00  0.000000E+00  0.000000E+00  0.000000E+00  0.000000E+00  0.000000E+00  8.311999E-03  7.946440E-03 -1.935075E-03  1.482874E-03                                                                                                                                                                                                                                                                                                                                                                                                                                                                                              
  1.185000E+03  1.250000E+02 -5.425000E+03  8.002102E-09  7.338033E-09 -1.902893E-09  2.562401E-09  4.716457E-11  4.327527E-11 -1.122212E-11  1.502704E-11  0.000000E+00  0.000000E+00  0.000000E+00  0.000000E+00  0.000000E+00  0.000000E+00  0.000000E+00  0.000000E+00  8.661003E-03  7.942256E-03 -2.059578E-03  2.773387E-03                                                                                                                                                                                                                                                                                                                                                                                                                                                                                              
  1.435000E+03  1.250000E+02 -5.425000E+03  5.098351E-09  3.098966E-09 -1.919534E-09  3.564405E-09  2.998522E-11  1.827594E-11 -1.132035E-11  2.090342E-11  0.000000E+00  0.000000E+00  0.000000E+00  0.000000E+00  0.000000E+00  0.000000E+00  0.000000E+00  0.000000E+00  5.518139E-03  3.354133E-03 -2.077585E-03  3.857888E-03                                                                                                                                                                                                                                                                                                                                                                                                                                                                                              
  1.250000E+02  1.250000E+02 -5.225000E+03  2.484778E-09 -1.155883E-09 -2.119184E-09  5.891649E-10  1.451509E-11 -6.734851E-12 -1.234757E-11  3.587077E-12  0.000000E+00  0.000000E+00  0.000000E+00  0.000000E+00  0.000000E+00  0.000000E+00  0.000000E+00  0.000000E+00  2.632219E-03 -1.202774E-03 -2.205151E-03  7.869051E-04                                                                                                                                                                                                                                                                                                                                                                                                                                                                                              
  3.750000E+02  1.250000E+02 -5.225000E+03  3.952863E-09 -1.101796E-09 -2.023914E-09 -3.211689E-09  2.283035E-11 -6.419705E-12 -1.179245E-11 -1.846485E-11  0.000000E+00  0.000000E+00  0.000000E+00  0.000000E+00  0.000000E+00  0.000000E+00  0.000000E+00  0.000000E+00  3.886713E-03 -1.146492E-03 -2.106025E-03 -3.058881E-03                                                                                                                                                                                                                                                                                                                                                                                                                                                                                              
  6.250000E+02  1.250000E+02 -5.225000E+03  6.860790E-09  2.947957E-09 -1.929108E-09 -5.887150E-09  3.970563E-11  1.717655E-11 -1.124008E-11 -3.398770E-11  0.000000E+00  0.000000E+00  0.000000E+00  0.000000E+00  0.000000E+00  0.000000E+00  0.000000E+00  0.000000E+00  6.833103E-03  3.067560E-03 -2.007392E-03 -5.766433E-03                                                                                                                                                                                                                                                                                                                                                                                                                                                                                              
  7.600000E+02  1.250000E+02 -5.225000E+03  8.152799E-09  5.984750E-09 -2.006854E-09 -5.159790E-09  4.731493E-11  3.487078E-11 -1.169311E-11 -2.976580E-11  0.000000E+00  0.000000E+00  0.000000E+00  0.000000E+00  0.000000E+00  0.000000E+00  0.000000E+00  0.000000E+00  8.271982E-03  6.227555E-03 -2.088284E-03 -5.028152E-03                                                                                                                                                                                                                                                                                                                                                                                                                                                                                              
  7.800000E+02  1.250000E+02 -5.225000E+03  8.363818E-09  6.373006E-09 -2.019350E-09 -5.025980E-09  4.855590E-11  3.713307E-11 -1.176593E-11 -2.898919E-11  0.000000E+00  0.000000E+00  0.000000E+00  0.000000E+00  0.000000E+00  0.000000E+00  0.000000E+00  0.000000E+00  8.504630E-03  6.631554E-03 -2.101286E-03 -4.892425E-03                                                                                                                                                                                                                                                                                                                                                                                                                                                                                              
  8.000000E+02  1.250000E+02 -5.225000E+03  8.563007E-09  6.748215E-09 -2.032730E-09 -4.863609E-09  4.972844E-11  3.931930E-11 -1.184390E-11 -2.804696E-11  0.000000E+00  0.000000E+00  0.000000E+00  0.000000E+00  0.000000E+00  0.000000E+00  0.000000E+00  0.000000E+00  8.725561E-03  7.021982E-03 -2.115207E-03 -4.727905E-03                                                                                                                                                                                                                                                                                                                                                                                                                                                                                              
  9.350000E+02  1.250000E+02 -5.225000E+03  9.527098E-09  8.545778E-09 -2.128159E-09 -3.634036E-09  5.541120E-11  4.979321E-11 -1.239998E-11 -2.091119E-11  0.000000E+00  0.000000E+00  0.000000E+00  0.000000E+00  0.000000E+00  0.000000E+00  0.000000E+00  0.000000E+00  9.803051E-03  8.892452E-03 -2.214496E-03 -3.481395E-03                                                                                                                                                                                                                                                                                                                                                                                                                                                                                              
  1.185000E+03  1.250000E+02 -5.225000E+03  9.277811E-09  8.894198E-09 -2.307453E-09  1.283233E-09  5.408001E-11  5.182377E-11 -1.344484E-11  7.627628E-12  0.000000E+00  0.000000E+00  0.000000E+00  0.000000E+00  0.000000E+00  0.000000E+00  0.000000E+00  0.000000E+00  9.678995E-03  9.254982E-03 -2.401051E-03  1.504398E-03                                                                                                                                                                                                                                                                                                                                                                                                                                                                                              
  1.435000E+03  1.250000E+02 -5.225000E+03  6.983480E-09  3.814510E-09 -2.272665E-09  5.390130E-09  4.074396E-11  2.222616E-11 -1.324228E-11  3.147555E-11  0.000000E+00  0.000000E+00  0.000000E+00  0.000000E+00  0.000000E+00  0.000000E+00  0.000000E+00  0.000000E+00  7.382278E-03  3.969234E-03 -2.364847E-03  5.757665E-03                                                                                                                                                                                                                                                                                                                                                                                                                                                                                              
  1.250000E+02  1.250000E+02 -4.975000E+03  1.325114E-08 -4.108069E-09 -3.727156E-09 -1.203432E-08  7.585728E-11 -2.361593E-11 -2.142621E-11 -6.882974E-11  0.000000E+00  0.000000E+00  0.000000E+00  0.000000E+00  0.000000E+00  0.000000E+00  0.000000E+00  0.000000E+00  1.269383E-02 -4.075380E-03 -3.697501E-03 -1.143910E-02                                                                                                                                                                                                                                                                                                                                                                                                                                                                                              
  3.750000E+02  1.250000E+02 -4.975000E+03  2.476048E-08 -6.153692E-09 -3.492629E-09 -2.372794E-08  1.417661E-10 -3.537546E-11 -2.007774E-11 -1.358054E-10  0.000000E+00  0.000000E+00  0.000000E+00  0.000000E+00  0.000000E+00  0.000000E+00  0.000000E+00  0.000000E+00  2.367936E-02 -6.104730E-03 -3.464842E-03 -2.261502E-02                                                                                                                                                                                                                                                                                                                                                                                                                                                                                              
  6.250000E+02  1.250000E+02 -4.975000E+03  3.183723E-08  1.783271E-09 -3.020687E-09 -3.164340E-08  1.822277E-10  1.025135E-11 -1.736470E-11 -1.811085E-10  0.000000E+00  0.000000E+00  0.000000E+00  0.000000E+00  0.000000E+00  0.000000E+00  0.000000E+00  0.000000E+00  3.033551E-02  1.769085E-03 -2.996711E-03 -3.013525E-02                                                                                                                                                                                                                                                                                                                                                                                                                                                                                              
  7.600000E+02  1.250000E+02 -4.975000E+03  3.147056E-08  8.107540E-09 -3.282507E-09 -3.023060E-08  1.801641E-10  4.660734E-11 -1.886986E-11 -1.730052E-10  0.000000E+00  0.000000E+00  0.000000E+00  0.000000E+00  0.000000E+00  0.000000E+00  0.000000E+00  0.000000E+00  3.005742E-02  8.043023E-03 -3.256416E-03 -2.877767E-02                                                                                                                                                                                                                                                                                                                                                                                                                                                                                              
  7.800000E+02  1.250000E+02 -4.975000E+03  3.143534E-08  9.000395E-09 -3.325825E-09 -2.993513E-08  1.799721E-10  5.174021E-11 -1.911889E-11 -1.713108E-10  0.000000E+00  0.000000E+00  0.000000E+00  0.000000E+00  0.000000E+00  0.000000E+00  0.000000E+00  0.000000E+00  3.004156E-02  8.928751E-03 -3.299387E-03 -2.849362E-02                                                                                                                                                                                                                                                                                                                                                                                                                                                                                              
  8.000000E+02  1.250000E+02 -4.975000E+03  3.083718E-08  9.835332E-09 -3.373548E-09 -2.903131E-08  1.765903E-10  5.654010E-11 -1.939326E-11 -1.661664E-10  0.000000E+00  0.000000E+00  0.000000E+00  0.000000E+00  0.000000E+00  0.000000E+00  0.000000E+00  0.000000E+00  2.952674E-02  9.757066E-03 -3.346729E-03 -2.766636E-02                                                                                                                                                                                                                                                                                                                                                                                                                                                                                              
  9.350000E+02  1.250000E+02 -4.975000E+03  2.947854E-08  1.379776E-08 -3.702466E-09 -2.578562E-08  1.688926E-10  7.931939E-11 -2.128422E-11 -1.475810E-10  0.000000E+00  0.000000E+00  0.000000E+00  0.000000E+00  0.000000E+00  0.000000E+00  0.000000E+00  0.000000E+00  2.836779E-02  1.368797E-02 -3.673006E-03 -2.457397E-02                                                                                                                                                                                                                                                                                                                                                                                                                                                                                              
  1.185000E+03  1.250000E+02 -4.975000E+03  2.076359E-08  1.544474E-08 -4.216203E-09 -1.322158E-08  1.190944E-10  8.878875E-11 -2.423814E-11 -7.558133E-11  0.000000E+00  0.000000E+00  0.000000E+00  0.000000E+00  0.000000E+00  0.000000E+00  0.000000E+00  0.000000E+00  2.023731E-02  1.532182E-02 -4.182650E-03 -1.254177E-02                                                                                                                                                                                                                                                                                                                                                                                                                                                                                              
  1.435000E+03  1.250000E+02 -4.975000E+03  8.367514E-09  6.760561E-09 -3.681540E-09 -3.279689E-09  4.799587E-11  3.886571E-11 -2.116494E-11 -1.857703E-11  0.000000E+00  0.000000E+00  0.000000E+00  0.000000E+00  0.000000E+00  0.000000E+00  0.000000E+00  0.000000E+00  8.175729E-03  6.706762E-03 -3.652247E-03 -2.919412E-03                                                                                                                                                                                                                                                                                                                                                                                                                                                                                              
  1.250000E+02  1.250000E+02 -4.725000E+03  3.592567E-08 -1.264987E-08 -8.041321E-09 -3.264923E-08  2.021868E-10 -7.178956E-11 -4.563747E-11 -1.834202E-10  0.000000E+00  0.000000E+00  0.000000E+00  0.000000E+00  0.000000E+00  0.000000E+00  0.000000E+00  0.000000E+00  3.110373E-02 -1.193740E-02 -7.590261E-03 -2.770069E-02                                                                                                                                                                                                                                                                                                                                                                                                                                                                                              
  3.750000E+02  1.250000E+02 -4.725000E+03  7.117538E-08 -1.972956E-08 -7.559929E-09 -6.796710E-08  3.958988E-10 -1.119545E-10 -4.289668E-11 -3.773088E-10  0.000000E+00  0.000000E+00  0.000000E+00  0.000000E+00  0.000000E+00  0.000000E+00  0.000000E+00  0.000000E+00  5.430254E-02 -1.860409E-02 -7.128580E-03 -5.051571E-02                                                                                                                                                                                                                                                                                                                                                                                                                                                                                              
  6.250000E+02  1.250000E+02 -4.725000E+03  8.925667E-08 -1.756773E-09 -4.330740E-09 -8.913424E-08  4.909367E-10 -9.975156E-12 -2.455365E-11 -4.902208E-10  0.000000E+00  0.000000E+00  0.000000E+00  0.000000E+00  0.000000E+00  0.000000E+00  0.000000E+00  0.000000E+00  5.791661E-02 -1.654288E-03 -4.066858E-03 -5.774996E-02                                                                                                                                                                                                                                                                                                                                                                                                                                                                                              
  7.600000E+02  1.250000E+02 -4.725000E+03  9.302348E-08  1.205372E-08 -5.425714E-09 -9.207951E-08  5.112985E-10  6.836476E-11 -3.076325E-11 -5.057728E-10  0.000000E+00  0.000000E+00  0.000000E+00  0.000000E+00  0.000000E+00  0.000000E+00  0.000000E+00  0.000000E+00  5.993965E-02  1.135059E-02 -5.096845E-03 -5.863401E-02                                                                                                                                                                                                                                                                                                                                                                                                                                                                                              
  7.800000E+02  1.250000E+02 -4.725000E+03  9.461028E-08  1.499780E-08 -5.652006E-09 -9.324283E-08  5.197624E-10  8.507123E-11 -3.204707E-11 -5.117507E-10  0.000000E+00  0.000000E+00  0.000000E+00  0.000000E+00  0.000000E+00  0.000000E+00  0.000000E+00  0.000000E+00  6.052476E-02  1.412273E-02 -5.310573E-03 -5.861393E-02                                                                                                                                                                                                                                                                                                                                                                                                                                                                                              
  8.000000E+02  1.250000E+02 -4.725000E+03  7.995240E-08  1.705504E-08 -5.950805E-09 -7.788517E-08  4.432976E-10  9.676171E-11 -3.374883E-11 -4.312899E-10  0.000000E+00  0.000000E+00  0.000000E+00  0.000000E+00  0.000000E+00  0.000000E+00  0.000000E+00  0.000000E+00  5.840328E-02  1.607113E-02 -5.593159E-03 -5.586930E-02                                                                                                                                                                                                                                                                                                                                                                                                                                                                                              
  9.350000E+02  1.250000E+02 -4.725000E+03  7.855214E-08  2.596243E-08 -7.918020E-09 -7.371361E-08  4.370727E-10  1.473320E-10 -4.492739E-11 -4.090323E-10  0.000000E+00  0.000000E+00  0.000000E+00  0.000000E+00  0.000000E+00  0.000000E+00  0.000000E+00  0.000000E+00  6.018836E-02  2.449256E-02 -7.464976E-03 -5.447042E-02                                                                                                                                                                                                                                                                                                                                                                                                                                                                                              
  1.185000E+03  1.250000E+02 -4.725000E+03  5.353682E-08  3.059303E-08 -1.010438E-08 -4.275698E-08  3.018006E-10  1.736260E-10 -5.734669E-11 -2.401019E-10  0.000000E+00  0.000000E+00  0.000000E+00  0.000000E+00  0.000000E+00  0.000000E+00  0.000000E+00  0.000000E+00  4.729211E-02  2.887220E-02 -9.537399E-03 -3.622124E-02                                                                                                                                                                                                                                                                                                                                                                                                                                                                                              