Title="TOUGHREACT V3.30-OMP flowvector.tec: Liq & Gas Fluxes (kg/s/m^2), Pore Velocities (m/s), & Heat Fluxes (J/s/m2)"                                                                                                                                                                                                                                                                                                                                                                                                                                                                                                                                                                                                                                                                                                         
Variables= "X(m)"     "Y(m)"      "Z(m)"     "FluxLiq"   "FluxLiq_X"   "FluxLiq_Y"   "FluxLiq_Z"   "PorVelLiq"  "PorVelLiqX"  "PorVelLiqY"  "PorVelLiqZ"     "FluxGas"   "FluxGas_X"   "FluxGas_Y"   "FluxGas_Z"   "PorVelGas"  "PorVelGasX"  "PorVelGasY"  "PorVelGasZ"    "HeatFlux"  "HeatFlux_X"  "HeatFlux_Y"  "HeatFlux_Z"                                                                                                                                                                                                                                                                                                                                                                                                                                                                                                
Zone T= "3.00000000E+10 sec" I=     9 J=    10 K=    23 F=Point
  1.250000E+02  1.250000E+02 -5.425000E+03  3.665915E-09  1.228498E-11 -1.507619E-10  3.662793E-09  2.134012E-11  7.219055E-14 -8.859257E-13  2.132160E-11  0.000000E+00  0.000000E+00  0.000000E+00  0.000000E+00  0.000000E+00  0.000000E+00  0.000000E+00  0.000000E+00  4.064184E-03  1.361963E-05 -1.671410E-04  4.060723E-03                                                                                                                                                                                                                                                                                                                                                                                                                                                                                              
  3.750000E+02  1.250000E+02 -5.425000E+03  3.584737E-09  2.047541E-10 -1.724061E-10  3.574730E-09  2.086833E-11  1.203203E-12 -1.013115E-12  2.080897E-11  0.000000E+00  0.000000E+00  0.000000E+00  0.000000E+00  0.000000E+00  0.000000E+00  0.000000E+00  0.000000E+00  3.974193E-03  2.269992E-04 -1.911372E-04  3.963098E-03                                                                                                                                                                                                                                                                                                                                                                                                                                                                                              
  6.250000E+02  1.250000E+02 -5.425000E+03  3.582506E-09  7.280871E-10 -2.137716E-10  3.501220E-09  2.086318E-11  4.278483E-12 -1.256194E-12  2.038109E-11  0.000000E+00  0.000000E+00  0.000000E+00  0.000000E+00  0.000000E+00  0.000000E+00  0.000000E+00  0.000000E+00  3.971729E-03  8.071899E-04 -2.369977E-04  3.881611E-03                                                                                                                                                                                                                                                                                                                                                                                                                                                                                              
  7.600000E+02  1.250000E+02 -5.425000E+03  3.739156E-09  1.092351E-09 -2.461174E-10  3.567560E-09  2.178476E-11  6.419026E-12 -1.446269E-12  2.076728E-11  0.000000E+00  0.000000E+00  0.000000E+00  0.000000E+00  0.000000E+00  0.000000E+00  0.000000E+00  0.000000E+00  4.145396E-03  1.211030E-03 -2.728575E-04  3.955156E-03                                                                                                                                                                                                                                                                                                                                                                                                                                                                                              
  7.800000E+02  1.250000E+02 -5.425000E+03  3.762143E-09  1.133495E-09 -2.509788E-10  3.578536E-09  2.191984E-11  6.660800E-12 -1.474837E-12  2.083118E-11  0.000000E+00  0.000000E+00  0.000000E+00  0.000000E+00  0.000000E+00  0.000000E+00  0.000000E+00  0.000000E+00  4.170880E-03  1.256643E-03 -2.782471E-04  3.967325E-03                                                                                                                                                                                                                                                                                                                                                                                                                                                                                              
  8.000000E+02  1.250000E+02 -5.425000E+03  3.785884E-09  1.172324E-09 -2.559008E-10  3.590695E-09  2.205927E-11  6.888973E-12 -1.503760E-12  2.090196E-11  0.000000E+00  0.000000E+00  0.000000E+00  0.000000E+00  0.000000E+00  0.000000E+00  0.000000E+00  0.000000E+00  4.197199E-03  1.299690E-03 -2.837038E-04  3.980804E-03                                                                                                                                                                                                                                                                                                                                                                                                                                                                                              
  9.350000E+02  1.250000E+02 -5.425000E+03  3.916361E-09  1.311815E-09 -2.894904E-10  3.678752E-09  2.282327E-11  7.708678E-12 -1.701145E-12  2.141458E-11  0.000000E+00  0.000000E+00  0.000000E+00  0.000000E+00  0.000000E+00  0.000000E+00  0.000000E+00  0.000000E+00  4.341848E-03  1.454336E-03 -3.209423E-04  4.078425E-03                                                                                                                                                                                                                                                                                                                                                                                                                                                                                              
  1.185000E+03  1.250000E+02 -5.425000E+03  4.113028E-09  1.228738E-09 -3.514260E-10  3.909438E-09  2.396465E-11  7.220493E-12 -2.065103E-12  2.275751E-11  0.000000E+00  0.000000E+00  0.000000E+00  0.000000E+00  0.000000E+00  0.000000E+00  0.000000E+00  0.000000E+00  4.559878E-03  1.362232E-03 -3.896060E-04  4.334169E-03                                                                                                                                                                                                                                                                                                                                                                                                                                                                                              
  1.435000E+03  1.250000E+02 -5.425000E+03  4.163325E-09  5.124848E-10 -3.846902E-10  4.113715E-09  2.424098E-11  3.011544E-12 -2.260578E-12  2.394673E-11  0.000000E+00  0.000000E+00  0.000000E+00  0.000000E+00  0.000000E+00  0.000000E+00  0.000000E+00  0.000000E+00  4.615642E-03  5.681625E-04 -4.264838E-04  4.560642E-03                                                                                                                                                                                                                                                                                                                                                                                                                                                                                              
  1.250000E+02  1.250000E+02 -5.225000E+03  7.519157E-09 -5.605297E-11 -1.816196E-10  7.516754E-09  4.340826E-11 -3.230252E-13 -1.046647E-12  4.339443E-11  0.000000E+00  0.000000E+00  0.000000E+00  0.000000E+00  0.000000E+00  0.000000E+00  0.000000E+00  0.000000E+00  8.079889E-03 -5.842038E-05 -1.892902E-04  8.077460E-03                                                                                                                                                                                                                                                                                                                                                                                                                                                                                              
  3.750000E+02  1.250000E+02 -5.225000E+03  7.138175E-09  7.152446E-11 -2.160891E-10  7.134545E-09  4.121795E-11  4.121855E-13 -1.245290E-12  4.119707E-11  0.000000E+00  0.000000E+00  0.000000E+00  0.000000E+00  0.000000E+00  0.000000E+00  0.000000E+00  0.000000E+00  7.676929E-03  7.454531E-05 -2.252161E-04  7.673263E-03                                                                                                                                                                                                                                                                                                                                                                                                                                                                                              
  6.250000E+02  1.250000E+02 -5.225000E+03  6.792620E-09  7.395767E-10 -2.773722E-10  6.746538E-09  3.923288E-11  4.262080E-12 -1.598459E-12  3.896792E-11  0.000000E+00  0.000000E+00  0.000000E+00  0.000000E+00  0.000000E+00  0.000000E+00  0.000000E+00  0.000000E+00  7.310509E-03  7.708150E-04 -2.890900E-04  7.264008E-03                                                                                                                                                                                                                                                                                                                                                                                                                                                                                              
  7.600000E+02  1.250000E+02 -5.225000E+03  7.132745E-09  1.255534E-09 -3.225561E-10  7.013960E-09  4.118891E-11  7.235479E-12 -1.858849E-12  4.050579E-11  0.000000E+00  0.000000E+00  0.000000E+00  0.000000E+00  0.000000E+00  0.000000E+00  0.000000E+00  0.000000E+00  7.667109E-03  1.308567E-03 -3.361821E-04  7.547132E-03                                                                                                                                                                                                                                                                                                                                                                                                                                                                                              
  7.800000E+02  1.250000E+02 -5.225000E+03  7.190476E-09  1.317122E-09 -3.293360E-10  7.061138E-09  4.152087E-11  7.590408E-12 -1.897921E-12  4.077703E-11  0.000000E+00  0.000000E+00  0.000000E+00  0.000000E+00  0.000000E+00  0.000000E+00  0.000000E+00  0.000000E+00  7.727688E-03  1.372757E-03 -3.432483E-04  7.597031E-03                                                                                                                                                                                                                                                                                                                                                                                                                                                                                              
  8.000000E+02  1.250000E+02 -5.225000E+03  7.266244E-09  1.374433E-09 -3.361948E-10  7.127146E-09  4.195630E-11  7.920684E-12 -1.937447E-12  4.115629E-11  0.000000E+00  0.000000E+00  0.000000E+00  0.000000E+00  0.000000E+00  0.000000E+00  0.000000E+00  0.000000E+00  7.807182E-03  1.432489E-03 -3.503967E-04  7.666635E-03                                                                                                                                                                                                                                                                                                                                                                                                                                                                                              
  9.350000E+02  1.250000E+02 -5.225000E+03  7.694918E-09  1.567457E-09 -3.824735E-10  7.523866E-09  4.442082E-11  9.033071E-12 -2.204147E-12  4.343678E-11  0.000000E+00  0.000000E+00  0.000000E+00  0.000000E+00  0.000000E+00  0.000000E+00  0.000000E+00  0.000000E+00  8.258967E-03  1.633667E-03 -3.986294E-04  8.085961E-03                                                                                                                                                                                                                                                                                                                                                                                                                                                                                              
  1.185000E+03  1.250000E+02 -5.225000E+03  8.602919E-09  1.514519E-09 -4.695478E-10  8.455529E-09  4.964297E-11  8.728033E-12 -2.705957E-12  4.879471E-11  0.000000E+00  0.000000E+00  0.000000E+00  0.000000E+00  0.000000E+00  0.000000E+00  0.000000E+00  0.000000E+00  9.221628E-03  1.578500E-03 -4.893831E-04  9.072335E-03                                                                                                                                                                                                                                                                                                                                                                                                                                                                                              
  1.435000E+03  1.250000E+02 -5.225000E+03  9.366083E-09  6.479084E-10 -5.069727E-10  9.329883E-09  5.403043E-11  3.733847E-12 -2.921647E-12  5.382202E-11  0.000000E+00  0.000000E+00  0.000000E+00  0.000000E+00  0.000000E+00  0.000000E+00  0.000000E+00  0.000000E+00  1.003396E-02  6.752829E-04 -5.283935E-04  9.997257E-03                                                                                                                                                                                                                                                                                                                                                                                                                                                                                              
  1.250000E+02  1.250000E+02 -4.975000E+03  8.315309E-09 -3.294857E-10 -3.158149E-10  8.302774E-09  4.728447E-11 -1.873587E-12 -1.795852E-12  4.721320E-11  0.000000E+00  0.000000E+00  0.000000E+00  0.000000E+00  0.000000E+00  0.000000E+00  0.000000E+00  0.000000E+00  8.449322E-03 -3.273745E-04 -3.137940E-04  8.437144E-03                                                                                                                                                                                                                                                                                                                                                                                                                                                                                              
  3.750000E+02  1.250000E+02 -4.975000E+03  7.360667E-09 -5.005198E-10 -4.219795E-10  7.331496E-09  4.186250E-11 -2.846149E-12 -2.399530E-12  4.169665E-11  0.000000E+00  0.000000E+00  0.000000E+00  0.000000E+00  0.000000E+00  0.000000E+00  0.000000E+00  0.000000E+00  7.485992E-03 -4.973084E-04 -4.192708E-04  7.457679E-03                                                                                                                                                                                                                                                                                                                                                                                                                                                                                              
  6.250000E+02  1.250000E+02 -4.975000E+03  5.980137E-09  7.826672E-10 -5.875528E-10  5.899513E-09  3.403375E-11  4.450507E-12 -3.341013E-12  3.357569E-11  0.000000E+00  0.000000E+00  0.000000E+00  0.000000E+00  0.000000E+00  0.000000E+00  0.000000E+00  0.000000E+00  6.097546E-03  7.776322E-04 -5.837668E-04  6.019516E-03                                                                                                                                                                                                                                                                                                                                                                                                                                                                                              
  7.600000E+02  1.250000E+02 -4.975000E+03  6.505858E-09  2.018438E-09 -6.954638E-10  6.145603E-09  3.702784E-11  1.147753E-11 -3.954632E-12  3.498125E-11  0.000000E+00  0.000000E+00  0.000000E+00  0.000000E+00  0.000000E+00  0.000000E+00  0.000000E+00  0.000000E+00  6.622693E-03  2.005454E-03 -6.909782E-04  6.273816E-03                                                                                                                                                                                                                                                                                                                                                                                                                                                                                              
  7.800000E+02  1.250000E+02 -4.975000E+03  6.607410E-09  2.245461E-09 -7.126432E-10  6.173160E-09  3.760649E-11  1.276850E-11 -4.052320E-12  3.513961E-11  0.000000E+00  0.000000E+00  0.000000E+00  0.000000E+00  0.000000E+00  0.000000E+00  0.000000E+00  0.000000E+00  6.723545E-03  2.231018E-03 -7.080480E-04  6.302958E-03                                                                                                                                                                                                                                                                                                                                                                                                                                                                                              
  8.000000E+02  1.250000E+02 -4.975000E+03  7.634774E-09  2.404692E-09 -7.316756E-10  7.209153E-09  4.342093E-11  1.367400E-11 -4.160562E-12  4.100108E-11  0.000000E+00  0.000000E+00  0.000000E+00  0.000000E+00  0.000000E+00  0.000000E+00  0.000000E+00  0.000000E+00  7.748495E-03  2.389253E-03 -7.269602E-04  7.334996E-03                                                                                                                                                                                                                                                                                                                                                                                                                                                                                              
  9.350000E+02  1.250000E+02 -4.975000E+03  8.677489E-09  2.722981E-09 -8.368730E-10  8.196574E-09  4.934197E-11  1.548405E-11 -4.758786E-12  4.660717E-11  0.000000E+00  0.000000E+00  0.000000E+00  0.000000E+00  0.000000E+00  0.000000E+00  0.000000E+00  0.000000E+00  8.798846E-03  2.705550E-03 -8.315026E-04  8.331164E-03                                                                                                                                                                                                                                                                                                                                                                                                                                                                                              
  1.185000E+03  1.250000E+02 -4.975000E+03  1.074549E-08  2.753395E-09 -1.053660E-09  1.033316E-08  6.108824E-11  1.565718E-11 -5.991605E-12  5.874289E-11  0.000000E+00  0.000000E+00  0.000000E+00  0.000000E+00  0.000000E+00  0.000000E+00  0.000000E+00  0.000000E+00  1.088985E-02  2.735837E-03 -1.046928E-03  1.048847E-02                                                                                                                                                                                                                                                                                                                                                                                                                                                                                              
  1.435000E+03  1.250000E+02 -4.975000E+03  1.281819E-08  1.254380E-09 -1.082908E-09  1.271062E-08  7.285127E-11  7.133100E-12 -6.158026E-12  7.223922E-11  0.000000E+00  0.000000E+00  0.000000E+00  0.000000E+00  0.000000E+00  0.000000E+00  0.000000E+00  0.000000E+00  1.298859E-02  1.246411E-03 -1.076040E-03  1.288379E-02                                                                                                                                                                                                                                                                                                                                                                                                                                                                                              
  1.250000E+02  1.250000E+02 -4.725000E+03  9.395649E-09 -2.768278E-10 -2.598637E-10  9.387974E-09  5.131211E-11 -1.552905E-12 -1.457894E-12  5.126788E-11  0.000000E+00  0.000000E+00  0.000000E+00  0.000000E+00  0.000000E+00  0.000000E+00  0.000000E+00  0.000000E+00  9.084756E-03 -2.605442E-04 -2.447834E-04  9.077719E-03                                                                                                                                                                                                                                                                                                                                                                                                                                                                                              
  3.750000E+02  1.250000E+02 -4.725000E+03  7.599187E-09 -3.393503E-10 -3.038230E-10  7.585524E-09  4.155427E-11 -1.903410E-12 -1.703492E-12  4.147569E-11  0.000000E+00  0.000000E+00  0.000000E+00  0.000000E+00  0.000000E+00  0.000000E+00  0.000000E+00  0.000000E+00  7.349502E-03 -3.192013E-04 -2.853696E-04  7.337020E-03                                                                                                                                                                                                                                                                                                                                                                                                                                                                                              
  6.250000E+02  1.250000E+02 -4.725000E+03  4.639191E-09  1.039548E-09 -4.104983E-10  4.502546E-09  2.553796E-11  5.825081E-12 -2.299379E-12  2.475821E-11  0.000000E+00  0.000000E+00  0.000000E+00  0.000000E+00  0.000000E+00  0.000000E+00  0.000000E+00  0.000000E+00  4.495092E-03  9.752772E-04 -3.838369E-04  4.371196E-03                                                                                                                                                                                                                                                                                                                                                                                                                                                                                              
  7.600000E+02  1.250000E+02 -4.725000E+03  4.122329E-09  2.428731E-09 -7.160627E-10  3.253016E-09  2.305319E-11  1.360948E-11 -4.011038E-12  1.816985E-11  0.000000E+00  0.000000E+00  0.000000E+00  0.000000E+00  0.000000E+00  0.000000E+00  0.000000E+00  0.000000E+00  3.985991E-03  2.278382E-03 -6.697402E-04  3.201335E-03                                                                                                                                                                                                                                                                                                                                                                                                                                                                                              
  7.800000E+02  1.250000E+02 -4.725000E+03  4.222010E-09  2.904123E-09 -7.737582E-10  2.965255E-09  2.368051E-11  1.627588E-11 -4.334285E-12  1.664561E-11  0.000000E+00  0.000000E+00  0.000000E+00  0.000000E+00  0.000000E+00  0.000000E+00  0.000000E+00  0.000000E+00  4.066259E-03  2.724024E-03 -7.238584E-04  2.930902E-03                                                                                                                                                                                                                                                                                                                                                                                                                                                                                              
  8.000000E+02  1.250000E+02 -4.725000E+03  8.908393E-09  3.142361E-09 -8.456838E-10  8.292759E-09  4.873383E-11  1.761760E-11 -4.738894E-12  4.519015E-11  0.000000E+00  0.000000E+00  0.000000E+00  0.000000E+00  0.000000E+00  0.000000E+00  0.000000E+00  0.000000E+00  8.557247E-03  2.950993E-03 -7.914094E-04  7.993234E-03                                                                                                                                                                                                                                                                                                                                                                                                                                                                                              
  9.350000E+02  1.250000E+02 -4.725000E+03  1.022803E-08  3.570955E-09 -1.288716E-09  9.497368E-09  5.602867E-11  2.003008E-11 -7.225443E-12  5.182471E-11  0.000000E+00  0.000000E+00  0.000000E+00  0.000000E+00  0.000000E+00  0.000000E+00  0.000000E+00  0.000000E+00  9.838918E-03  3.359910E-03 -1.209848E-03  9.167965E-03                                                                                                                                                                                                                                                                                                                                                                                                                                                                                              
  1.185000E+03  1.250000E+02 -4.725000E+03  1.416563E-08  4.285370E-09 -2.095323E-09  1.333830E-08  7.750677E-11  2.404810E-11 -1.175490E-11  7.273796E-11  0.000000E+00  0.000000E+00  0.000000E+00  0.000000E+00  0.000000E+00  0.000000E+00  0.000000E+00  0.000000E+00  1.363664E-02  4.038949E-03 -1.972017E-03  1.287463E-02                                                                                                                                                                                                                                                                                                                                                                                                                                                                                              