Title="TOUGHREACT V3.30-OMP flowvector.tec: Liq & Gas Fluxes (kg/s/m^2), Pore Velocities (m/s), & Heat Fluxes (J/s/m2)"                                                                                                                                                                                                                                                                                                                                                                                                                                                                                                                                                                                                                                                                                                         
Variables= "X(m)"     "Y(m)"      "Z(m)"     "FluxLiq"   "FluxLiq_X"   "FluxLiq_Y"   "FluxLiq_Z"   "PorVelLiq"  "PorVelLiqX"  "PorVelLiqY"  "PorVelLiqZ"     "FluxGas"   "FluxGas_X"   "FluxGas_Y"   "FluxGas_Z"   "PorVelGas"  "PorVelGasX"  "PorVelGasY"  "PorVelGasZ"    "HeatFlux"  "HeatFlux_X"  "HeatFlux_Y"  "HeatFlux_Z"                                                                                                                                                                                                                                                                                                                                                                                                                                                                                                
Zone T= "7.33000000E+10 sec" I=     9 J=    10 K=    23 F=Point
  1.250000E+02  1.250000E+02 -5.425000E+03  3.879986E-09 -8.323400E-11 -1.165221E-10  3.877343E-09  2.272526E-11 -4.953044E-13 -6.933936E-13  2.270928E-11  0.000000E+00  0.000000E+00  0.000000E+00  0.000000E+00  0.000000E+00  0.000000E+00  0.000000E+00  0.000000E+00  4.456000E-03 -9.559090E-05 -1.338209E-04  4.452964E-03                                                                                                                                                                                                                                                                                                                                                                                                                                                                                              
  3.750000E+02  1.250000E+02 -5.425000E+03  3.794035E-09 -9.502908E-11 -1.269091E-10  3.790721E-09  2.222196E-11 -5.654940E-13 -7.552043E-13  2.220192E-11  0.000000E+00  0.000000E+00  0.000000E+00  0.000000E+00  0.000000E+00  0.000000E+00  0.000000E+00  0.000000E+00  4.357296E-03 -1.091371E-04 -1.457503E-04  4.353490E-03                                                                                                                                                                                                                                                                                                                                                                                                                                                                                              
  6.250000E+02  1.250000E+02 -5.425000E+03  3.708685E-09  2.119982E-10 -1.397624E-10  3.699982E-09  2.172309E-11  1.261549E-12 -8.316916E-13  2.167048E-11  0.000000E+00  0.000000E+00  0.000000E+00  0.000000E+00  0.000000E+00  0.000000E+00  0.000000E+00  0.000000E+00  4.259285E-03  2.434720E-04 -1.605123E-04  4.249290E-03                                                                                                                                                                                                                                                                                                                                                                                                                                                                                              
  7.600000E+02  1.250000E+02 -5.425000E+03  3.764360E-09  4.623723E-10 -1.443455E-10  3.733066E-09  2.205345E-11  2.751464E-12 -8.589649E-13  2.186427E-11  0.000000E+00  0.000000E+00  0.000000E+00  0.000000E+00  0.000000E+00  0.000000E+00  0.000000E+00  0.000000E+00  4.323224E-03  5.310171E-04 -1.657758E-04  4.287284E-03                                                                                                                                                                                                                                                                                                                                                                                                                                                                                              
  7.800000E+02  1.250000E+02 -5.425000E+03  3.773735E-09  4.912227E-10 -1.449907E-10  3.738817E-09  2.210904E-11  2.923145E-12 -8.628043E-13  2.189795E-11  0.000000E+00  0.000000E+00  0.000000E+00  0.000000E+00  0.000000E+00  0.000000E+00  0.000000E+00  0.000000E+00  4.333990E-03  5.641505E-04 -1.665167E-04  4.293888E-03                                                                                                                                                                                                                                                                                                                                                                                                                                                                                              
  8.000000E+02  1.250000E+02 -5.425000E+03  3.783988E-09  5.185279E-10 -1.456008E-10  3.745463E-09  2.216976E-11  3.085632E-12 -8.664347E-13  2.193688E-11  0.000000E+00  0.000000E+00  0.000000E+00  0.000000E+00  0.000000E+00  0.000000E+00  0.000000E+00  0.000000E+00  4.345764E-03  5.955094E-04 -1.672173E-04  4.301520E-03                                                                                                                                                                                                                                                                                                                                                                                                                                                                                              
  9.350000E+02  1.250000E+02 -5.425000E+03  3.847470E-09  6.198176E-10 -1.494915E-10  3.794273E-09  2.254434E-11  3.688383E-12 -8.895874E-13  2.222277E-11  0.000000E+00  0.000000E+00  0.000000E+00  0.000000E+00  0.000000E+00  0.000000E+00  0.000000E+00  0.000000E+00  4.418668E-03  7.118364E-04 -1.716854E-04  4.357573E-03                                                                                                                                                                                                                                                                                                                                                                                                                                                                                              
  1.185000E+03  1.250000E+02 -5.425000E+03  3.959447E-09  6.059001E-10 -1.521129E-10  3.909855E-09  2.319959E-11  3.605565E-12 -9.051873E-13  2.289981E-11  0.000000E+00  0.000000E+00  0.000000E+00  0.000000E+00  0.000000E+00  0.000000E+00  0.000000E+00  0.000000E+00  4.547267E-03  6.958524E-04 -1.746956E-04  4.490313E-03                                                                                                                                                                                                                                                                                                                                                                                                                                                                                              
  1.435000E+03  1.250000E+02 -5.425000E+03  4.007289E-09  2.519668E-10 -1.468282E-10  3.996664E-09  2.347257E-11  1.499394E-12 -8.737400E-13  2.340833E-11  0.000000E+00  0.000000E+00  0.000000E+00  0.000000E+00  0.000000E+00  0.000000E+00  0.000000E+00  0.000000E+00  4.602214E-03  2.893738E-04 -1.686263E-04  4.590012E-03                                                                                                                                                                                                                                                                                                                                                                                                                                                                                              
  1.250000E+02  1.250000E+02 -5.225000E+03  8.093004E-09 -1.428797E-10 -1.414676E-10  8.090506E-09  4.685500E-11 -8.234488E-13 -8.153109E-13  4.684067E-11  0.000000E+00  0.000000E+00  0.000000E+00  0.000000E+00  0.000000E+00  0.000000E+00  0.000000E+00  0.000000E+00  8.847360E-03 -1.489409E-04 -1.474691E-04  8.844877E-03                                                                                                                                                                                                                                                                                                                                                                                                                                                                                              
  3.750000E+02  1.250000E+02 -5.225000E+03  7.737908E-09 -2.227725E-10 -1.638279E-10  7.732965E-09  4.480982E-11 -1.283889E-12 -9.441770E-13  4.478147E-11  0.000000E+00  0.000000E+00  0.000000E+00  0.000000E+00  0.000000E+00  0.000000E+00  0.000000E+00  0.000000E+00  8.467878E-03 -2.322228E-04 -1.707776E-04  8.462970E-03                                                                                                                                                                                                                                                                                                                                                                                                                                                                                              
  6.250000E+02  1.250000E+02 -5.225000E+03  7.307431E-09  1.770564E-10 -1.898631E-10  7.302818E-09  4.233238E-11  1.020416E-12 -1.094223E-12  4.230593E-11  0.000000E+00  0.000000E+00  0.000000E+00  0.000000E+00  0.000000E+00  0.000000E+00  0.000000E+00  0.000000E+00  8.009535E-03  1.845672E-04 -1.979178E-04  8.004961E-03                                                                                                                                                                                                                                                                                                                                                                                                                                                                                              
  7.600000E+02  1.250000E+02 -5.225000E+03  7.458382E-09  5.358361E-10 -1.945319E-10  7.436565E-09  4.320140E-11  3.088146E-12 -1.121132E-12  4.307630E-11  0.000000E+00  0.000000E+00  0.000000E+00  0.000000E+00  0.000000E+00  0.000000E+00  0.000000E+00  0.000000E+00  8.169540E-03  5.585675E-04 -2.027847E-04  8.147899E-03                                                                                                                                                                                                                                                                                                                                                                                                                                                                                              
  7.800000E+02  1.250000E+02 -5.225000E+03  7.487335E-09  5.786166E-10 -1.951181E-10  7.462394E-09  4.336801E-11  3.334702E-12 -1.124511E-12  4.322499E-11  0.000000E+00  0.000000E+00  0.000000E+00  0.000000E+00  0.000000E+00  0.000000E+00  0.000000E+00  0.000000E+00  8.200177E-03  6.031638E-04 -2.033958E-04  8.175435E-03                                                                                                                                                                                                                                                                                                                                                                                                                                                                                              
  8.000000E+02  1.250000E+02 -5.225000E+03  7.533524E-09  6.179532E-10 -1.956037E-10  7.505588E-09  4.363353E-11  3.561410E-12 -1.127309E-12  4.347333E-11  0.000000E+00  0.000000E+00  0.000000E+00  0.000000E+00  0.000000E+00  0.000000E+00  0.000000E+00  0.000000E+00  8.248888E-03  6.441696E-04 -2.039019E-04  8.221169E-03                                                                                                                                                                                                                                                                                                                                                                                                                                                                                              
  9.350000E+02  1.250000E+02 -5.225000E+03  7.775227E-09  7.355699E-10 -1.977455E-10  7.737829E-09  4.502444E-11  4.239273E-12 -1.139654E-12  4.480993E-11  0.000000E+00  0.000000E+00  0.000000E+00  0.000000E+00  0.000000E+00  0.000000E+00  0.000000E+00  0.000000E+00  8.505592E-03  7.667780E-04 -2.061346E-04  8.468450E-03                                                                                                                                                                                                                                                                                                                                                                                                                                                                                              
  1.185000E+03  1.250000E+02 -5.225000E+03  8.218980E-09  7.153691E-10 -1.947880E-10  8.185471E-09  4.758141E-11  4.122868E-12 -1.122615E-12  4.738916E-11  0.000000E+00  0.000000E+00  0.000000E+00  0.000000E+00  0.000000E+00  0.000000E+00  0.000000E+00  0.000000E+00  8.980727E-03  7.457263E-04 -2.030535E-04  8.947408E-03                                                                                                                                                                                                                                                                                                                                                                                                                                                                                              
  1.435000E+03  1.250000E+02 -5.225000E+03  8.526167E-09  2.980228E-10 -1.753948E-10  8.519151E-09  4.935223E-11  1.717593E-12 -1.010853E-12  4.931197E-11  0.000000E+00  0.000000E+00  0.000000E+00  0.000000E+00  0.000000E+00  0.000000E+00  0.000000E+00  0.000000E+00  9.311517E-03  3.106725E-04 -1.828401E-04  9.304537E-03                                                                                                                                                                                                                                                                                                                                                                                                                                                                                              
  1.250000E+02  1.250000E+02 -4.975000E+03  9.113975E-09 -3.864756E-10 -2.561283E-10  9.102174E-09  5.182769E-11 -2.197746E-12 -1.456511E-12  5.176058E-11  0.000000E+00  0.000000E+00  0.000000E+00  0.000000E+00  0.000000E+00  0.000000E+00  0.000000E+00  0.000000E+00  9.261731E-03 -3.840404E-04 -2.545176E-04  9.250264E-03                                                                                                                                                                                                                                                                                                                                                                                                                                                                                              
  3.750000E+02  1.250000E+02 -4.975000E+03  8.315971E-09 -7.777403E-10 -3.506739E-10  8.272093E-09  4.729208E-11 -4.422703E-12 -1.994140E-12  4.704258E-11  0.000000E+00  0.000000E+00  0.000000E+00  0.000000E+00  0.000000E+00  0.000000E+00  0.000000E+00  0.000000E+00  8.454656E-03 -7.728262E-04 -3.484582E-04  8.412046E-03                                                                                                                                                                                                                                                                                                                                                                                                                                                                                              
  6.250000E+02  1.250000E+02 -4.975000E+03  6.895639E-09  3.290977E-11 -4.592684E-10  6.880249E-09  3.923192E-11  1.871333E-13 -2.611642E-12  3.914445E-11  0.000000E+00  0.000000E+00  0.000000E+00  0.000000E+00  0.000000E+00  0.000000E+00  0.000000E+00  0.000000E+00  7.027229E-03  3.270126E-05 -4.563498E-04  7.012319E-03                                                                                                                                                                                                                                                                                                                                                                                                                                                                                              
  7.600000E+02  1.250000E+02 -4.975000E+03  6.911147E-09  9.338281E-10 -4.624985E-10  6.832131E-09  3.932945E-11  5.310267E-12 -2.630012E-12  3.888046E-11  0.000000E+00  0.000000E+00  0.000000E+00  0.000000E+00  0.000000E+00  0.000000E+00  0.000000E+00  0.000000E+00  7.045942E-03  9.279140E-04 -4.595579E-04  6.969439E-03                                                                                                                                                                                                                                                                                                                                                                                                                                                                                              
  7.800000E+02  1.250000E+02 -4.975000E+03  6.907625E-09  1.110476E-09 -4.632743E-10  6.802022E-09  3.931188E-11  6.314800E-12 -2.634425E-12  3.871184E-11  0.000000E+00  0.000000E+00  0.000000E+00  0.000000E+00  0.000000E+00  0.000000E+00  0.000000E+00  0.000000E+00  7.042732E-03  1.103445E-03 -4.603300E-04  6.940503E-03                                                                                                                                                                                                                                                                                                                                                                                                                                                                                              
  8.000000E+02  1.250000E+02 -4.975000E+03  7.879886E-09  1.221315E-09 -4.650722E-10  7.770759E-09  4.481350E-11  6.945131E-12 -2.644661E-12  4.419300E-11  0.000000E+00  0.000000E+00  0.000000E+00  0.000000E+00  0.000000E+00  0.000000E+00  0.000000E+00  0.000000E+00  8.010947E-03  1.213599E-03 -4.621183E-04  7.904992E-03                                                                                                                                                                                                                                                                                                                                                                                                                                                                                              
  9.350000E+02  1.250000E+02 -4.975000E+03  8.407401E-09  1.317797E-09 -4.489886E-10  8.291334E-09  4.781230E-11  7.493856E-12 -2.553221E-12  4.715230E-11  0.000000E+00  0.000000E+00  0.000000E+00  0.000000E+00  0.000000E+00  0.000000E+00  0.000000E+00  0.000000E+00  8.544061E-03  1.309501E-03 -4.461520E-04  8.431319E-03                                                                                                                                                                                                                                                                                                                                                                                                                                                                                              
  1.185000E+03  1.250000E+02 -4.975000E+03  9.288513E-09  1.195556E-09 -4.181752E-10  9.201752E-09  5.282398E-11  6.798797E-12 -2.378035E-12  5.233062E-11  0.000000E+00  0.000000E+00  0.000000E+00  0.000000E+00  0.000000E+00  0.000000E+00  0.000000E+00  0.000000E+00  9.436843E-03  1.188066E-03 -4.155500E-04  9.352530E-03                                                                                                                                                                                                                                                                                                                                                                                                                                                                                              
  1.435000E+03  1.250000E+02 -4.975000E+03  9.900836E-09  4.982514E-10 -3.061176E-10  9.883552E-09  5.630775E-11  2.833448E-12 -1.740829E-12  5.620946E-11  0.000000E+00  0.000000E+00  0.000000E+00  0.000000E+00  0.000000E+00  0.000000E+00  0.000000E+00  0.000000E+00  1.005927E-02  4.951460E-04 -3.042136E-04  1.004247E-02                                                                                                                                                                                                                                                                                                                                                                                                                                                                                              
  1.250000E+02  1.250000E+02 -4.725000E+03  1.016504E-08 -2.104795E-10 -1.373267E-10  1.016194E-08  5.553487E-11 -1.180770E-12 -7.704707E-13  5.551697E-11  0.000000E+00  0.000000E+00  0.000000E+00  0.000000E+00  0.000000E+00  0.000000E+00  0.000000E+00  0.000000E+00  9.833949E-03 -1.981246E-04 -1.293753E-04  9.831101E-03                                                                                                                                                                                                                                                                                                                                                                                                                                                                                              
  3.750000E+02  1.250000E+02 -4.725000E+03  8.881501E-09 -4.090191E-10 -1.879610E-10  8.870086E-09  4.853527E-11 -2.293841E-12 -1.053916E-12  4.846958E-11  0.000000E+00  0.000000E+00  0.000000E+00  0.000000E+00  0.000000E+00  0.000000E+00  0.000000E+00  0.000000E+00  8.586725E-03 -3.844086E-04 -1.765651E-04  8.576298E-03                                                                                                                                                                                                                                                                                                                                                                                                                                                                                              
  6.250000E+02  1.250000E+02 -4.725000E+03  6.385772E-09  4.799313E-11 -2.406127E-10  6.381057E-09  3.493992E-11  2.684566E-13 -1.347822E-12  3.491288E-11  0.000000E+00  0.000000E+00  0.000000E+00  0.000000E+00  0.000000E+00  0.000000E+00  0.000000E+00  0.000000E+00  6.172974E-03  4.503058E-05 -2.250013E-04  6.168708E-03                                                                                                                                                                                                                                                                                                                                                                                                                                                                                              
  7.600000E+02  1.250000E+02 -4.725000E+03  5.949675E-09  5.427063E-10 -2.526722E-10  5.919482E-09  3.259190E-11  3.041183E-12 -1.415395E-12  3.241882E-11  0.000000E+00  0.000000E+00  0.000000E+00  0.000000E+00  0.000000E+00  0.000000E+00  0.000000E+00  0.000000E+00  5.754434E-03  5.091624E-04 -2.363434E-04  5.726989E-03                                                                                                                                                                                                                                                                                                                                                                                                                                                                                              
  7.800000E+02  1.250000E+02 -4.725000E+03  5.813056E-09  6.459933E-10 -2.552539E-10  5.771409E-09  3.185640E-11  3.620536E-12 -1.429877E-12  3.161768E-11  0.000000E+00  0.000000E+00  0.000000E+00  0.000000E+00  0.000000E+00  0.000000E+00  0.000000E+00  0.000000E+00  5.622918E-03  6.059928E-04 -2.388098E-04  5.585065E-03                                                                                                                                                                                                                                                                                                                                                                                                                                                                                              
  8.000000E+02  1.250000E+02 -4.725000E+03  8.280237E-09  7.049593E-10 -2.589602E-10  8.246108E-09  4.524596E-11  3.952508E-12 -1.451166E-12  4.504962E-11  0.000000E+00  0.000000E+00  0.000000E+00  0.000000E+00  0.000000E+00  0.000000E+00  0.000000E+00  0.000000E+00  7.999388E-03  6.621076E-04 -2.423589E-04  7.968255E-03                                                                                                                                                                                                                                                                                                                                                                                                                                                                                              
  9.350000E+02  1.250000E+02 -4.725000E+03  8.992033E-09  7.509891E-10 -2.675898E-10  8.956621E-09  4.914031E-11  4.212538E-12 -1.500357E-12  4.893643E-11  0.000000E+00  0.000000E+00  0.000000E+00  0.000000E+00  0.000000E+00  0.000000E+00  0.000000E+00  0.000000E+00  8.692196E-03  7.066644E-04 -2.512405E-04  8.659779E-03                                                                                                                                                                                                                                                                                                                                                                                                                                                                                              
  1.185000E+03  1.250000E+02 -4.725000E+03  1.027616E-08  7.071007E-10 -2.755922E-10  1.024810E-08  5.615471E-11  3.968019E-12 -1.546157E-12  5.599300E-11  0.000000E+00  0.000000E+00  0.000000E+00  0.000000E+00  0.000000E+00  0.000000E+00  0.000000E+00  0.000000E+00  9.943048E-03  6.664021E-04 -2.594066E-04  9.917299E-03                                                                                                                                                                                                                                                                                                                                                                                                                                                                                              