Title="TOUGHREACT V3.30-OMP flowvector.tec: Liq & Gas Fluxes (kg/s/m^2), Pore Velocities (m/s), & Heat Fluxes (J/s/m2)"                                                                                                                                                                                                                                                                                                                                                                                                                                                                                                                                                                                                                                                                                                         
Variables= "X(m)"     "Y(m)"      "Z(m)"     "FluxLiq"   "FluxLiq_X"   "FluxLiq_Y"   "FluxLiq_Z"   "PorVelLiq"  "PorVelLiqX"  "PorVelLiqY"  "PorVelLiqZ"     "FluxGas"   "FluxGas_X"   "FluxGas_Y"   "FluxGas_Z"   "PorVelGas"  "PorVelGasX"  "PorVelGasY"  "PorVelGasZ"    "HeatFlux"  "HeatFlux_X"  "HeatFlux_Y"  "HeatFlux_Z"                                                                                                                                                                                                                                                                                                                                                                                                                                                                                                
Zone T= "1.67000000E+10 sec" I=     9 J=    10 K=    23 F=Point
  1.250000E+02  1.250000E+02 -5.425000E+03  3.233533E-09  1.865450E-10 -3.148666E-10  3.212755E-09  1.879356E-11  1.092292E-12 -1.843662E-12  1.867098E-11  0.000000E+00  0.000000E+00  0.000000E+00  0.000000E+00  0.000000E+00  0.000000E+00  0.000000E+00  0.000000E+00  3.545449E-03  2.045397E-04 -3.452398E-04  3.522667E-03                                                                                                                                                                                                                                                                                                                                                                                                                                                                                              
  3.750000E+02  1.250000E+02 -5.425000E+03  3.200636E-09  8.111017E-10 -3.417642E-10  3.077236E-09  1.861122E-11  4.749315E-12 -2.001160E-12  1.788343E-11  0.000000E+00  0.000000E+00  0.000000E+00  0.000000E+00  0.000000E+00  0.000000E+00  0.000000E+00  0.000000E+00  3.509385E-03  8.893441E-04 -3.747331E-04  3.374081E-03                                                                                                                                                                                                                                                                                                                                                                                                                                                                                              
  6.250000E+02  1.250000E+02 -5.425000E+03  3.569232E-09  1.856072E-09 -4.181557E-10  3.019861E-09  2.078733E-11  1.086804E-11 -2.448468E-12  1.755004E-11  0.000000E+00  0.000000E+00  0.000000E+00  0.000000E+00  0.000000E+00  0.000000E+00  0.000000E+00  0.000000E+00  3.913545E-03  2.035121E-03 -4.584955E-04  3.311178E-03                                                                                                                                                                                                                                                                                                                                                                                                                                                                                              
  7.600000E+02  1.250000E+02 -5.425000E+03  4.052607E-09  2.499984E-09 -4.945024E-10  3.151058E-09  2.362237E-11  1.463842E-11 -2.895512E-12  1.831253E-11  0.000000E+00  0.000000E+00  0.000000E+00  0.000000E+00  0.000000E+00  0.000000E+00  0.000000E+00  0.000000E+00  4.443547E-03  2.741149E-03 -5.422068E-04  3.455029E-03                                                                                                                                                                                                                                                                                                                                                                                                                                                                                              
  7.800000E+02  1.250000E+02 -5.425000E+03  4.115199E-09  2.571942E-09 -5.061091E-10  3.172353E-09  2.398908E-11  1.505978E-11 -2.963475E-12  1.843629E-11  0.000000E+00  0.000000E+00  0.000000E+00  0.000000E+00  0.000000E+00  0.000000E+00  0.000000E+00  0.000000E+00  4.512176E-03  2.820048E-03 -5.549331E-04  3.478378E-03                                                                                                                                                                                                                                                                                                                                                                                                                                                                                              
  8.000000E+02  1.250000E+02 -5.425000E+03  4.177106E-09  2.639782E-09 -5.179898E-10  3.195537E-09  2.435163E-11  1.545701E-11 -3.033042E-12  1.857103E-11  0.000000E+00  0.000000E+00  0.000000E+00  0.000000E+00  0.000000E+00  0.000000E+00  0.000000E+00  0.000000E+00  4.580055E-03  2.894431E-03 -5.679597E-04  3.503797E-03                                                                                                                                                                                                                                                                                                                                                                                                                                                                                              
  9.350000E+02  1.250000E+02 -5.425000E+03  4.470045E-09  2.883163E-09 -5.998967E-10  3.362855E-09  2.606322E-11  1.688213E-11 -3.512646E-12  1.954345E-11  0.000000E+00  0.000000E+00  0.000000E+00  0.000000E+00  0.000000E+00  0.000000E+00  0.000000E+00  0.000000E+00  4.901248E-03  3.161288E-03 -6.577670E-04  3.687253E-03                                                                                                                                                                                                                                                                                                                                                                                                                                                                                              
  1.185000E+03  1.250000E+02 -5.425000E+03  4.738174E-09  2.652888E-09 -7.668463E-10  3.850250E-09  2.760708E-11  1.553382E-11 -4.490220E-12  2.237609E-11  0.000000E+00  0.000000E+00  0.000000E+00  0.000000E+00  0.000000E+00  0.000000E+00  0.000000E+00  0.000000E+00  5.195236E-03  2.908797E-03 -8.408193E-04  4.221659E-03                                                                                                                                                                                                                                                                                                                                                                                                                                                                                              
  1.435000E+03  1.250000E+02 -5.425000E+03  4.532136E-09  1.106033E-09 -8.694352E-10  4.308252E-09  2.635827E-11  6.476323E-12 -5.090939E-12  2.503793E-11  0.000000E+00  0.000000E+00  0.000000E+00  0.000000E+00  0.000000E+00  0.000000E+00  0.000000E+00  0.000000E+00  4.969324E-03  1.212725E-03 -9.533038E-04  4.723843E-03                                                                                                                                                                                                                                                                                                                                                                                                                                                                                              
  1.250000E+02  1.250000E+02 -5.225000E+03  6.020658E-09  7.595938E-11 -3.845155E-10  6.007887E-09  3.475564E-11  4.378134E-13 -2.216261E-12  3.468214E-11  0.000000E+00  0.000000E+00  0.000000E+00  0.000000E+00  0.000000E+00  0.000000E+00  0.000000E+00  0.000000E+00  6.448616E-03  7.916249E-05 -4.007297E-04  6.435666E-03                                                                                                                                                                                                                                                                                                                                                                                                                                                                                              
  3.750000E+02  1.250000E+02 -5.225000E+03  5.407827E-09  6.367888E-10 -4.124103E-10  5.354345E-09  3.123481E-11  3.670316E-12 -2.377043E-12  3.092720E-11  0.000000E+00  0.000000E+00  0.000000E+00  0.000000E+00  0.000000E+00  0.000000E+00  0.000000E+00  0.000000E+00  5.801346E-03  6.636415E-04 -4.298024E-04  5.747214E-03                                                                                                                                                                                                                                                                                                                                                                                                                                                                                              
  6.250000E+02  1.250000E+02 -5.225000E+03  5.382663E-09  1.947107E-09 -5.091159E-10  4.992258E-09  3.109321E-11  1.122273E-11 -2.934442E-12  2.884834E-11  0.000000E+00  0.000000E+00  0.000000E+00  0.000000E+00  0.000000E+00  0.000000E+00  0.000000E+00  0.000000E+00  5.762061E-03  2.029220E-03 -5.305910E-04  5.366757E-03                                                                                                                                                                                                                                                                                                                                                                                                                                                                                              
  7.600000E+02  1.250000E+02 -5.225000E+03  6.223689E-09  2.826603E-09 -6.173349E-10  5.510311E-09  3.593102E-11  1.629200E-11 -3.558201E-12  3.182685E-11  0.000000E+00  0.000000E+00  0.000000E+00  0.000000E+00  0.000000E+00  0.000000E+00  0.000000E+00  0.000000E+00  6.638108E-03  2.945809E-03 -6.433732E-04  5.913778E-03                                                                                                                                                                                                                                                                                                                                                                                                                                                                                              
  7.800000E+02  1.250000E+02 -5.225000E+03  6.350961E-09  2.932412E-09 -6.338686E-10  5.597667E-09  3.666317E-11  1.690188E-11 -3.653498E-12  3.232903E-11  0.000000E+00  0.000000E+00  0.000000E+00  0.000000E+00  0.000000E+00  0.000000E+00  0.000000E+00  0.000000E+00  6.771096E-03  3.056079E-03 -6.606039E-04  6.005974E-03                                                                                                                                                                                                                                                                                                                                                                                                                                                                                              
  8.000000E+02  1.250000E+02 -5.225000E+03  6.495126E-09  3.032236E-09 -6.508770E-10  5.706887E-09  3.749227E-11  1.747726E-11 -3.751533E-12  3.295666E-11  0.000000E+00  0.000000E+00  0.000000E+00  0.000000E+00  0.000000E+00  0.000000E+00  0.000000E+00  0.000000E+00  6.921980E-03  3.160114E-03 -6.783294E-04  6.121059E-03                                                                                                                                                                                                                                                                                                                                                                                                                                                                                              
  9.350000E+02  1.250000E+02 -5.225000E+03  7.312333E-09  3.419945E-09 -7.681842E-10  6.417482E-09  4.219259E-11  1.971198E-11 -4.427677E-12  3.704117E-11  0.000000E+00  0.000000E+00  0.000000E+00  0.000000E+00  0.000000E+00  0.000000E+00  0.000000E+00  0.000000E+00  7.781438E-03  3.564173E-03 -8.005816E-04  6.870701E-03                                                                                                                                                                                                                                                                                                                                                                                                                                                                                              
  1.185000E+03  1.250000E+02 -5.225000E+03  9.110403E-09  3.306557E-09 -1.016676E-09  8.428078E-09  5.253065E-11  1.905853E-11 -5.859971E-12  4.859941E-11  0.000000E+00  0.000000E+00  0.000000E+00  0.000000E+00  0.000000E+00  0.000000E+00  0.000000E+00  0.000000E+00  9.688339E-03  3.446010E-03 -1.059552E-03  8.992568E-03                                                                                                                                                                                                                                                                                                                                                                                                                                                                                              
  1.435000E+03  1.250000E+02 -5.225000E+03  1.061439E-08  1.426762E-09 -1.156834E-09  1.045425E-08  6.116786E-11  8.223689E-12 -6.667861E-12  6.024464E-11  0.000000E+00  0.000000E+00  0.000000E+00  0.000000E+00  0.000000E+00  0.000000E+00  0.000000E+00  0.000000E+00  1.129255E-02  1.486939E-03 -1.205628E-03  1.112911E-02                                                                                                                                                                                                                                                                                                                                                                                                                                                                                              
  1.250000E+02  1.250000E+02 -4.975000E+03  6.056155E-09 -4.194833E-10 -7.077193E-10  6.000015E-09  3.444415E-11 -2.385727E-12 -4.025013E-12  3.412487E-11  0.000000E+00  0.000000E+00  0.000000E+00  0.000000E+00  0.000000E+00  0.000000E+00  0.000000E+00  0.000000E+00  6.151770E-03 -4.167717E-04 -7.031497E-04  6.097226E-03                                                                                                                                                                                                                                                                                                                                                                                                                                                                                              
  3.750000E+02  1.250000E+02 -4.975000E+03  3.961667E-09 -1.610766E-10 -7.319251E-10  3.890134E-09  2.256440E-11 -9.160999E-13 -4.162652E-12  2.215819E-11  0.000000E+00  0.000000E+00  0.000000E+00  0.000000E+00  0.000000E+00  0.000000E+00  0.000000E+00  0.000000E+00  4.044855E-03 -1.600354E-04 -7.271872E-04  3.975731E-03                                                                                                                                                                                                                                                                                                                                                                                                                                                                                              
  6.250000E+02  1.250000E+02 -4.975000E+03  3.413428E-09  2.300725E-09 -9.124618E-10  2.350652E-09  1.945853E-11  1.308480E-11 -5.189382E-12  1.343475E-11  0.000000E+00  0.000000E+00  0.000000E+00  0.000000E+00  0.000000E+00  0.000000E+00  0.000000E+00  0.000000E+00  3.458081E-03  2.285805E-03 -9.065365E-04  2.431381E-03                                                                                                                                                                                                                                                                                                                                                                                                                                                                                              
  7.600000E+02  1.250000E+02 -4.975000E+03  5.415555E-09  4.246264E-09 -1.175841E-09  3.148790E-09  3.083793E-11  2.414960E-11 -6.687289E-12  1.797372E-11  0.000000E+00  0.000000E+00  0.000000E+00  0.000000E+00  0.000000E+00  0.000000E+00  0.000000E+00  0.000000E+00  5.447965E-03  4.218713E-03 -1.168196E-03  3.243163E-03                                                                                                                                                                                                                                                                                                                                                                                                                                                                                              
  7.800000E+02  1.250000E+02 -4.975000E+03  5.754546E-09  4.573426E-09 -1.217651E-09  3.273516E-09  3.276531E-11  2.601035E-11 -6.925076E-12  1.868344E-11  0.000000E+00  0.000000E+00  0.000000E+00  0.000000E+00  0.000000E+00  0.000000E+00  0.000000E+00  0.000000E+00  5.785150E-03  4.543746E-03 -1.209736E-03  3.370293E-03                                                                                                                                                                                                                                                                                                                                                                                                                                                                                              
  8.000000E+02  1.250000E+02 -4.975000E+03  6.638963E-09  4.833967E-09 -1.262800E-09  4.371948E-09  3.777959E-11  2.749224E-11 -7.181877E-12  2.489768E-11  0.000000E+00  0.000000E+00  0.000000E+00  0.000000E+00  0.000000E+00  0.000000E+00  0.000000E+00  0.000000E+00  6.677057E-03  4.802653E-03 -1.254594E-03  4.465827E-03                                                                                                                                                                                                                                                                                                                                                                                                                                                                                              
  9.350000E+02  1.250000E+02 -4.975000E+03  8.536634E-09  5.749673E-09 -1.555193E-09  6.115289E-09  4.856008E-11  3.270042E-11 -8.844864E-12  3.479270E-11  0.000000E+00  0.000000E+00  0.000000E+00  0.000000E+00  0.000000E+00  0.000000E+00  0.000000E+00  0.000000E+00  8.588524E-03  5.712520E-03 -1.545126E-03  6.224343E-03                                                                                                                                                                                                                                                                                                                                                                                                                                                                                              
  1.185000E+03  1.250000E+02 -4.975000E+03  1.284128E-08  6.171142E-09 -2.221519E-09  1.103995E-08  7.300045E-11  3.509794E-11 -1.263467E-11  6.275002E-11  0.000000E+00  0.000000E+00  0.000000E+00  0.000000E+00  0.000000E+00  0.000000E+00  0.000000E+00  0.000000E+00  1.295049E-02  6.131382E-03 -2.207186E-03  1.119151E-02                                                                                                                                                                                                                                                                                                                                                                                                                                                                                              
  1.435000E+03  1.250000E+02 -4.975000E+03  1.735822E-08  2.885956E-09 -2.498242E-09  1.693333E-08  9.861366E-11  1.641385E-11 -1.420877E-11  9.619434E-11  0.000000E+00  0.000000E+00  0.000000E+00  0.000000E+00  0.000000E+00  0.000000E+00  0.000000E+00  0.000000E+00  1.753863E-02  2.867412E-03 -2.482216E-03  1.712367E-02                                                                                                                                                                                                                                                                                                                                                                                                                                                                                              
  1.250000E+02  1.250000E+02 -4.725000E+03  8.416321E-09 -1.246687E-09 -1.269435E-09  8.226103E-09  4.584219E-11 -6.994518E-12 -7.122882E-12  4.474201E-11  0.000000E+00  0.000000E+00  0.000000E+00  0.000000E+00  0.000000E+00  0.000000E+00  0.000000E+00  0.000000E+00  8.093840E-03 -1.173283E-03 -1.195690E-03  7.918584E-03                                                                                                                                                                                                                                                                                                                                                                                                                                                                                              
  3.750000E+02  1.250000E+02 -4.725000E+03  2.382581E-09 -1.024120E-09 -8.940561E-10  1.956665E-09  1.333069E-11 -5.746621E-12 -5.013607E-12  1.093378E-11  0.000000E+00  0.000000E+00  0.000000E+00  0.000000E+00  0.000000E+00  0.000000E+00  0.000000E+00  0.000000E+00  2.311617E-03 -9.638199E-04 -8.397218E-04  1.926004E-03                                                                                                                                                                                                                                                                                                                                                                                                                                                                                              
  6.250000E+02  1.250000E+02 -4.725000E+03  3.549931E-09  2.985010E-09 -8.549065E-10 -1.720716E-09  1.959184E-11  1.673024E-11 -4.789507E-12 -8.999986E-12  0.000000E+00  0.000000E+00  0.000000E+00  0.000000E+00  0.000000E+00  0.000000E+00  0.000000E+00  0.000000E+00  2.951636E-03  2.801077E-03 -7.994076E-04 -4.765144E-04                                                                                                                                                                                                                                                                                                                                                                                                                                                                                              
  7.600000E+02  1.250000E+02 -4.725000E+03  6.674769E-09  5.921207E-09 -1.585571E-09 -2.641553E-09  3.700142E-11  3.318562E-11 -8.883215E-12 -1.374438E-11  0.000000E+00  0.000000E+00  0.000000E+00  0.000000E+00  0.000000E+00  0.000000E+00  0.000000E+00  0.000000E+00  5.781434E-03  5.554770E-03 -1.483092E-03 -6.082297E-04                                                                                                                                                                                                                                                                                                                                                                                                                                                                                              
  7.800000E+02  1.250000E+02 -4.725000E+03  7.527725E-09  6.749940E-09 -1.717297E-09 -2.855843E-09  4.177287E-11  3.783598E-11 -9.621377E-12 -1.486069E-11  0.000000E+00  0.000000E+00  0.000000E+00  0.000000E+00  0.000000E+00  0.000000E+00  0.000000E+00  0.000000E+00  6.565595E-03  6.331702E-03 -1.606649E-03 -6.597524E-04                                                                                                                                                                                                                                                                                                                                                                                                                                                                                              
  8.000000E+02  1.250000E+02 -4.725000E+03  8.282631E-09  7.297888E-09 -1.874562E-09  3.439306E-09  4.627676E-11  4.092239E-11 -1.050612E-11  1.888168E-11  0.000000E+00  0.000000E+00  0.000000E+00  0.000000E+00  0.000000E+00  0.000000E+00  0.000000E+00  0.000000E+00  7.820398E-03  6.853659E-03 -1.754365E-03  3.332894E-03                                                                                                                                                                                                                                                                                                                                                                                                                                                                                              
  9.350000E+02  1.250000E+02 -4.725000E+03  1.171343E-08  9.338392E-09 -2.941202E-09  6.430255E-09  6.522723E-11  5.238970E-11 -1.649314E-11  3.518362E-11  0.000000E+00  0.000000E+00  0.000000E+00  0.000000E+00  0.000000E+00  0.000000E+00  0.000000E+00  0.000000E+00  1.110963E-02  8.786378E-03 -2.761266E-03  6.212792E-03                                                                                                                                                                                                                                                                                                                                                                                                                                                                                              
  1.185000E+03  1.250000E+02 -4.725000E+03  2.122921E-08  1.202376E-08 -5.251497E-09  1.668923E-08  1.171034E-10  6.748409E-11 -2.946612E-11  9.105406E-11  0.000000E+00  0.000000E+00  0.000000E+00  0.000000E+00  0.000000E+00  0.000000E+00  0.000000E+00  0.000000E+00  2.027390E-02  1.133143E-02 -4.942478E-03  1.606865E-02                                                                                                                                                                                                                                                                                                                                                                                                                                                                                              