Title="TOUGHREACT V3.30-OMP flowvector.tec: Liq & Gas Fluxes (kg/s/m^2), Pore Velocities (m/s), & Heat Fluxes (J/s/m2)"                                                                                                                                                                                                                                                                                                                                                                                                                                                                                                                                                                                                                                                                                                         
Variables= "X(m)"     "Y(m)"      "Z(m)"     "FluxLiq"   "FluxLiq_X"   "FluxLiq_Y"   "FluxLiq_Z"   "PorVelLiq"  "PorVelLiqX"  "PorVelLiqY"  "PorVelLiqZ"     "FluxGas"   "FluxGas_X"   "FluxGas_Y"   "FluxGas_Z"   "PorVelGas"  "PorVelGasX"  "PorVelGasY"  "PorVelGasZ"    "HeatFlux"  "HeatFlux_X"  "HeatFlux_Y"  "HeatFlux_Z"                                                                                                                                                                                                                                                                                                                                                                                                                                                                                                
Zone T= "9.66000000E+10 sec" I=     9 J=    10 K=    23 F=Point
  1.250000E+02  1.250000E+02 -5.425000E+03  3.952268E-09 -8.724149E-11 -1.183804E-10  3.949532E-09  2.322808E-11 -5.228167E-13 -7.094242E-13  2.321136E-11  0.000000E+00  0.000000E+00  0.000000E+00  0.000000E+00  0.000000E+00  0.000000E+00  0.000000E+00  0.000000E+00  4.624379E-03 -1.020777E-04 -1.385119E-04  4.621177E-03                                                                                                                                                                                                                                                                                                                                                                                                                                                                                              
  3.750000E+02  1.250000E+02 -5.425000E+03  3.864456E-09 -1.035655E-10 -1.287882E-10  3.860921E-09  2.271217E-11 -6.206424E-13 -7.717962E-13  2.269056E-11  0.000000E+00  0.000000E+00  0.000000E+00  0.000000E+00  0.000000E+00  0.000000E+00  0.000000E+00  0.000000E+00  4.521642E-03 -1.211778E-04 -1.506901E-04  4.517505E-03                                                                                                                                                                                                                                                                                                                                                                                                                                                                                              
  6.250000E+02  1.250000E+02 -5.425000E+03  3.775840E-09  2.066190E-10 -1.414771E-10  3.767527E-09  2.219248E-11  1.238218E-12 -8.478386E-13  2.214168E-11  0.000000E+00  0.000000E+00  0.000000E+00  0.000000E+00  0.000000E+00  0.000000E+00  0.000000E+00  0.000000E+00  4.417965E-03  2.417570E-04 -1.655375E-04  4.408239E-03                                                                                                                                                                                                                                                                                                                                                                                                                                                                                              
  7.600000E+02  1.250000E+02 -5.425000E+03  3.831401E-09  4.609233E-10 -1.456560E-10  3.800785E-09  2.252422E-11  2.762203E-12 -8.728816E-13  2.233716E-11  0.000000E+00  0.000000E+00  0.000000E+00  0.000000E+00  0.000000E+00  0.000000E+00  0.000000E+00  0.000000E+00  4.482973E-03  5.393085E-04 -1.704268E-04  4.447151E-03                                                                                                                                                                                                                                                                                                                                                                                                                                                                                              
  7.800000E+02  1.250000E+02 -5.425000E+03  3.840809E-09  4.902728E-10 -1.462385E-10  3.806581E-09  2.258035E-11  2.938088E-12 -8.763725E-13  2.237123E-11  0.000000E+00  0.000000E+00  0.000000E+00  0.000000E+00  0.000000E+00  0.000000E+00  0.000000E+00  0.000000E+00  4.493981E-03  5.736491E-04 -1.711084E-04  4.453932E-03                                                                                                                                                                                                                                                                                                                                                                                                                                                                                              
  8.000000E+02  1.250000E+02 -5.425000E+03  3.851121E-09  5.180386E-10 -1.467847E-10  3.813295E-09  2.264179E-11  3.104481E-12 -8.796455E-13  2.241069E-11  0.000000E+00  0.000000E+00  0.000000E+00  0.000000E+00  0.000000E+00  0.000000E+00  0.000000E+00  0.000000E+00  4.506046E-03  6.061367E-04 -1.717474E-04  4.461788E-03                                                                                                                                                                                                                                                                                                                                                                                                                                                                                              
  9.350000E+02  1.250000E+02 -5.425000E+03  3.915087E-09  6.211324E-10 -1.502197E-10  3.862581E-09  2.302114E-11  3.722298E-12 -9.002308E-13  2.270037E-11  0.000000E+00  0.000000E+00  0.000000E+00  0.000000E+00  0.000000E+00  0.000000E+00  0.000000E+00  0.000000E+00  4.580886E-03  7.267623E-04 -1.757663E-04  4.519452E-03                                                                                                                                                                                                                                                                                                                                                                                                                                                                                              
  1.185000E+03  1.250000E+02 -5.425000E+03  4.027744E-09  6.084763E-10 -1.518265E-10  3.978621E-09  2.368254E-11  3.646455E-12 -9.098606E-13  2.338243E-11  0.000000E+00  0.000000E+00  0.000000E+00  0.000000E+00  0.000000E+00  0.000000E+00  0.000000E+00  0.000000E+00  4.712699E-03  7.119536E-04 -1.776460E-04  4.655222E-03                                                                                                                                                                                                                                                                                                                                                                                                                                                                                              
  1.435000E+03  1.250000E+02 -5.425000E+03  4.075888E-09  2.530899E-10 -1.455861E-10  4.065416E-09  2.395661E-11  1.516709E-12 -8.724638E-13  2.389263E-11  0.000000E+00  0.000000E+00  0.000000E+00  0.000000E+00  0.000000E+00  0.000000E+00  0.000000E+00  0.000000E+00  4.769033E-03  2.961302E-04 -1.703443E-04  4.756781E-03                                                                                                                                                                                                                                                                                                                                                                                                                                                                                              
  1.250000E+02  1.250000E+02 -5.225000E+03  8.243737E-09 -1.455413E-10 -1.419513E-10  8.241230E-09  4.780803E-11 -8.388353E-13 -8.181448E-13  4.779367E-11  0.000000E+00  0.000000E+00  0.000000E+00  0.000000E+00  0.000000E+00  0.000000E+00  0.000000E+00  0.000000E+00  9.098034E-03 -1.517355E-04 -1.479932E-04  9.095564E-03                                                                                                                                                                                                                                                                                                                                                                                                                                                                                              
  3.750000E+02  1.250000E+02 -5.225000E+03  7.883339E-09 -2.295690E-10 -1.642613E-10  7.878283E-09  4.573031E-11 -1.323133E-12 -9.467273E-13  4.570136E-11  0.000000E+00  0.000000E+00  0.000000E+00  0.000000E+00  0.000000E+00  0.000000E+00  0.000000E+00  0.000000E+00  8.710818E-03 -2.393391E-04 -1.712517E-04  8.705845E-03                                                                                                                                                                                                                                                                                                                                                                                                                                                                                              
  6.250000E+02  1.250000E+02 -5.225000E+03  7.444733E-09  1.691739E-10 -1.898978E-10  7.440387E-09  4.320396E-11  9.750413E-13 -1.094483E-12  4.317909E-11  0.000000E+00  0.000000E+00  0.000000E+00  0.000000E+00  0.000000E+00  0.000000E+00  0.000000E+00  0.000000E+00  8.241666E-03  1.763732E-04 -1.979791E-04  8.237400E-03                                                                                                                                                                                                                                                                                                                                                                                                                                                                                              
  7.600000E+02  1.250000E+02 -5.225000E+03  7.594727E-09  5.283758E-10 -1.939033E-10  7.573843E-09  4.406808E-11  3.045320E-12 -1.117570E-12  4.394852E-11  0.000000E+00  0.000000E+00  0.000000E+00  0.000000E+00  0.000000E+00  0.000000E+00  0.000000E+00  0.000000E+00  8.401307E-03  5.508624E-04 -2.021553E-04  8.380790E-03                                                                                                                                                                                                                                                                                                                                                                                                                                                                                              
  7.800000E+02  1.250000E+02 -5.225000E+03  7.623617E-09  5.712233E-10 -1.943870E-10  7.599701E-09  4.423442E-11  3.292276E-12 -1.120358E-12  4.409750E-11  0.000000E+00  0.000000E+00  0.000000E+00  0.000000E+00  0.000000E+00  0.000000E+00  0.000000E+00  0.000000E+00  8.431988E-03  5.955348E-04 -2.026596E-04  8.408489E-03                                                                                                                                                                                                                                                                                                                                                                                                                                                                                              
  8.000000E+02  1.250000E+02 -5.225000E+03  7.669859E-09  6.106174E-10 -1.947658E-10  7.643033E-09  4.450038E-11  3.519328E-12 -1.122542E-12  4.434679E-11  0.000000E+00  0.000000E+00  0.000000E+00  0.000000E+00  0.000000E+00  0.000000E+00  0.000000E+00  0.000000E+00  8.480889E-03  6.366060E-04 -2.030546E-04  8.454524E-03                                                                                                                                                                                                                                                                                                                                                                                                                                                                                              
  9.350000E+02  1.250000E+02 -5.225000E+03  7.912019E-09  7.281587E-10 -1.961597E-10  7.875998E-09  4.589493E-11  4.196797E-12 -1.130578E-12  4.568866E-11  0.000000E+00  0.000000E+00  0.000000E+00  0.000000E+00  0.000000E+00  0.000000E+00  0.000000E+00  0.000000E+00  8.739147E-03  7.591527E-04 -2.045082E-04  8.703710E-03                                                                                                                                                                                                                                                                                                                                                                                                                                                                                              
  1.185000E+03  1.250000E+02 -5.225000E+03  8.354621E-09  7.086734E-10 -1.915770E-10  8.322306E-09  4.844788E-11  4.084513E-12 -1.104172E-12  4.826277E-11  0.000000E+00  0.000000E+00  0.000000E+00  0.000000E+00  0.000000E+00  0.000000E+00  0.000000E+00  0.000000E+00  9.215733E-03  7.388459E-04 -1.997331E-04  9.183897E-03                                                                                                                                                                                                                                                                                                                                                                                                                                                                                              
  1.435000E+03  1.250000E+02 -5.225000E+03  8.659443E-09  2.950829E-10 -1.708789E-10  8.652727E-09  5.020724E-11  1.700748E-12 -9.848835E-13  5.016876E-11  0.000000E+00  0.000000E+00  0.000000E+00  0.000000E+00  0.000000E+00  0.000000E+00  0.000000E+00  0.000000E+00  9.546173E-03  3.076499E-04 -1.781571E-04  9.539551E-03                                                                                                                                                                                                                                                                                                                                                                                                                                                                                              
  1.250000E+02  1.250000E+02 -4.975000E+03  9.269803E-09 -3.892741E-10 -2.566118E-10  9.258070E-09  5.271636E-11 -2.213732E-12 -1.459309E-12  5.264964E-11  0.000000E+00  0.000000E+00  0.000000E+00  0.000000E+00  0.000000E+00  0.000000E+00  0.000000E+00  0.000000E+00  9.421324E-03 -3.868439E-04 -2.550135E-04  9.409924E-03                                                                                                                                                                                                                                                                                                                                                                                                                                                                                              
  3.750000E+02  1.250000E+02 -4.975000E+03  8.464911E-09 -7.858870E-10 -3.512856E-10  8.421028E-09  4.814123E-11 -4.469172E-12 -1.997680E-12  4.789169E-11  0.000000E+00  0.000000E+00  0.000000E+00  0.000000E+00  0.000000E+00  0.000000E+00  0.000000E+00  0.000000E+00  8.607129E-03 -7.809649E-04 -3.490854E-04  8.564514E-03                                                                                                                                                                                                                                                                                                                                                                                                                                                                                              
  6.250000E+02  1.250000E+02 -4.975000E+03  7.032230E-09  2.095048E-11 -4.593494E-10  7.017181E-09  4.001036E-11  1.191285E-13 -2.612180E-12  3.992482E-11  0.000000E+00  0.000000E+00  0.000000E+00  0.000000E+00  0.000000E+00  0.000000E+00  0.000000E+00  0.000000E+00  7.167050E-03  2.081886E-05 -4.564526E-04  7.152470E-03                                                                                                                                                                                                                                                                                                                                                                                                                                                                                              
  7.600000E+02  1.250000E+02 -4.975000E+03  7.040492E-09  9.206293E-10 -4.607936E-10  6.964815E-09  4.006685E-11  5.235371E-12 -2.620396E-12  3.963681E-11  0.000000E+00  0.000000E+00  0.000000E+00  0.000000E+00  0.000000E+00  0.000000E+00  0.000000E+00  0.000000E+00  7.178633E-03  9.148482E-04 -4.578869E-04  7.105362E-03                                                                                                                                                                                                                                                                                                                                                                                                                                                                                              
  7.800000E+02  1.250000E+02 -4.975000E+03  7.035212E-09  1.097374E-09 -4.612893E-10  6.933772E-09  4.003931E-11  6.240490E-12 -2.623217E-12  3.946291E-11  0.000000E+00  0.000000E+00  0.000000E+00  0.000000E+00  0.000000E+00  0.000000E+00  0.000000E+00  0.000000E+00  7.173699E-03  1.090487E-03 -4.583808E-04  7.075499E-03                                                                                                                                                                                                                                                                                                                                                                                                                                                                                              
  8.000000E+02  1.250000E+02 -4.975000E+03  8.011042E-09  1.208079E-09 -4.627968E-10  7.905894E-09  4.556141E-11  6.870072E-12 -2.631801E-12  4.496351E-11  0.000000E+00  0.000000E+00  0.000000E+00  0.000000E+00  0.000000E+00  0.000000E+00  0.000000E+00  0.000000E+00  8.145505E-03  1.200512E-03 -4.598809E-04  8.043415E-03                                                                                                                                                                                                                                                                                                                                                                                                                                                                                              
  9.350000E+02  1.250000E+02 -4.975000E+03  8.536344E-09  1.301797E-09 -4.445469E-10  8.424777E-09  4.854791E-11  7.403102E-12 -2.528042E-12  4.791349E-11  0.000000E+00  0.000000E+00  0.000000E+00  0.000000E+00  0.000000E+00  0.000000E+00  0.000000E+00  0.000000E+00  8.676505E-03  1.293674E-03 -4.417623E-04  8.568139E-03                                                                                                                                                                                                                                                                                                                                                                                                                                                                                              
  1.185000E+03  1.250000E+02 -4.975000E+03  9.407077E-09  1.177386E-09 -4.091211E-10  9.324134E-09  5.350119E-11  6.695688E-12 -2.326623E-12  5.302954E-11  0.000000E+00  0.000000E+00  0.000000E+00  0.000000E+00  0.000000E+00  0.000000E+00  0.000000E+00  0.000000E+00  9.558996E-03  1.170081E-03 -4.065769E-04  9.478397E-03                                                                                                                                                                                                                                                                                                                                                                                                                                                                                              
  1.435000E+03  1.250000E+02 -4.975000E+03  1.000343E-08  4.893590E-10 -2.932254E-10  9.987153E-09  5.689481E-11  2.782972E-12 -1.667570E-12  5.680224E-11  0.000000E+00  0.000000E+00  0.000000E+00  0.000000E+00  0.000000E+00  0.000000E+00  0.000000E+00  0.000000E+00  1.016544E-02  4.863399E-04 -2.914205E-04  1.014962E-02                                                                                                                                                                                                                                                                                                                                                                                                                                                                                              
  1.250000E+02  1.250000E+02 -4.725000E+03  1.031748E-08 -2.123030E-10 -1.377345E-10  1.031437E-08  5.637078E-11 -1.191041E-12 -7.727855E-13  5.635290E-11  0.000000E+00  0.000000E+00  0.000000E+00  0.000000E+00  0.000000E+00  0.000000E+00  0.000000E+00  0.000000E+00  9.982331E-03 -1.998555E-04 -1.297692E-04  9.979487E-03                                                                                                                                                                                                                                                                                                                                                                                                                                                                                              
  3.750000E+02  1.250000E+02 -4.725000E+03  9.027440E-09 -4.150281E-10 -1.883224E-10  9.015928E-09  4.933512E-11 -2.327613E-12 -1.055977E-12  4.926886E-11  0.000000E+00  0.000000E+00  0.000000E+00  0.000000E+00  0.000000E+00  0.000000E+00  0.000000E+00  0.000000E+00  8.728532E-03 -3.900776E-04 -1.769158E-04  8.718016E-03                                                                                                                                                                                                                                                                                                                                                                                                                                                                                              
  6.250000E+02  1.250000E+02 -4.725000E+03  6.522189E-09  3.123600E-11 -2.395695E-10  6.517713E-09  3.568599E-11  1.745447E-13 -1.342015E-12  3.566031E-11  0.000000E+00  0.000000E+00  0.000000E+00  0.000000E+00  0.000000E+00  0.000000E+00  0.000000E+00  0.000000E+00  6.305032E-03  2.930953E-05 -2.240347E-04  6.300983E-03                                                                                                                                                                                                                                                                                                                                                                                                                                                                                              
  7.600000E+02  1.250000E+02 -4.725000E+03  6.092209E-09  5.151688E-10 -2.468465E-10  6.065367E-09  3.336747E-11  2.886954E-12 -1.382798E-12  3.321358E-11  0.000000E+00  0.000000E+00  0.000000E+00  0.000000E+00  0.000000E+00  0.000000E+00  0.000000E+00  0.000000E+00  5.892077E-03  4.833540E-04 -2.309034E-04  5.867676E-03                                                                                                                                                                                                                                                                                                                                                                                                                                                                                              
  7.800000E+02  1.250000E+02 -4.725000E+03  5.955256E-09  6.133634E-10 -2.485364E-10  5.918369E-09  3.262924E-11  3.437760E-12 -1.392285E-12  3.241775E-11  0.000000E+00  0.000000E+00  0.000000E+00  0.000000E+00  0.000000E+00  0.000000E+00  0.000000E+00  0.000000E+00  5.760224E-03  5.754148E-04 -2.325346E-04  5.726692E-03                                                                                                                                                                                                                                                                                                                                                                                                                                                                                              
  8.000000E+02  1.250000E+02 -4.725000E+03  8.389784E-09  6.700894E-10 -2.511460E-10  8.359209E-09  4.584819E-11  3.757120E-12 -1.407418E-12  4.567230E-11  0.000000E+00  0.000000E+00  0.000000E+00  0.000000E+00  0.000000E+00  0.000000E+00  0.000000E+00  0.000000E+00  8.106480E-03  6.293954E-04 -2.350558E-04  8.078591E-03                                                                                                                                                                                                                                                                                                                                                                                                                                                                                              
  9.350000E+02  1.250000E+02 -4.725000E+03  9.100946E-09  7.114832E-10 -2.526735E-10  9.069573E-09  4.973837E-11  3.991067E-12 -1.416768E-12  4.955774E-11  0.000000E+00  0.000000E+00  0.000000E+00  0.000000E+00  0.000000E+00  0.000000E+00  0.000000E+00  0.000000E+00  8.798735E-03  6.695343E-04 -2.372498E-04  8.770016E-03                                                                                                                                                                                                                                                                                                                                                                                                                                                                                              
  1.185000E+03  1.250000E+02 -4.725000E+03  1.035173E-08  6.579375E-10 -2.464411E-10  1.032786E-08  5.657288E-11  3.692245E-12 -1.382657E-12  5.643533E-11  0.000000E+00  0.000000E+00  0.000000E+00  0.000000E+00  0.000000E+00  0.000000E+00  0.000000E+00  0.000000E+00  1.001790E-02  6.201039E-04 -2.319833E-04  9.996000E-03                                                                                                                                                                                                                                                                                                                                                                                                                                                                                              