Title="TOUGHREACT V3.30-OMP flowvector.tec: Liq & Gas Fluxes (kg/s/m^2), Pore Velocities (m/s), & Heat Fluxes (J/s/m2)"                                                                                                                                                                                                                                                                                                                                                                                                                                                                                                                                                                                                                                                                                                         
Variables= "X(m)"     "Y(m)"      "Z(m)"     "FluxLiq"   "FluxLiq_X"   "FluxLiq_Y"   "FluxLiq_Z"   "PorVelLiq"  "PorVelLiqX"  "PorVelLiqY"  "PorVelLiqZ"     "FluxGas"   "FluxGas_X"   "FluxGas_Y"   "FluxGas_Z"   "PorVelGas"  "PorVelGasX"  "PorVelGasY"  "PorVelGasZ"    "HeatFlux"  "HeatFlux_X"  "HeatFlux_Y"  "HeatFlux_Z"                                                                                                                                                                                                                                                                                                                                                                                                                                                                                                
Zone T= "7.66000000E+10 sec" I=     9 J=    10 K=    23 F=Point
  1.250000E+02  1.250000E+02 -5.425000E+03  3.890197E-09 -8.404825E-11 -1.167196E-10  3.887537E-09  2.279602E-11 -5.006430E-13 -6.952533E-13  2.277991E-11  0.000000E+00  0.000000E+00  0.000000E+00  0.000000E+00  0.000000E+00  0.000000E+00  0.000000E+00  0.000000E+00  4.479597E-03 -9.678250E-05 -1.344038E-04  4.476534E-03                                                                                                                                                                                                                                                                                                                                                                                                                                                                                              
  3.750000E+02  1.250000E+02 -5.425000E+03  3.803990E-09 -9.702973E-11 -1.270617E-10  3.800629E-09  2.229099E-11 -5.779687E-13 -7.568575E-13  2.227064E-11  0.000000E+00  0.000000E+00  0.000000E+00  0.000000E+00  0.000000E+00  0.000000E+00  0.000000E+00  0.000000E+00  4.380337E-03 -1.117309E-04 -1.463132E-04  4.376466E-03                                                                                                                                                                                                                                                                                                                                                                                                                                                                                              
  6.250000E+02  1.250000E+02 -5.425000E+03  3.718036E-09  2.098436E-10 -1.397974E-10  3.709476E-09  2.178834E-11  1.249959E-12 -8.327204E-13  2.173651E-11  0.000000E+00  0.000000E+00  0.000000E+00  0.000000E+00  0.000000E+00  0.000000E+00  0.000000E+00  0.000000E+00  4.281370E-03  2.416378E-04 -1.609792E-04  4.271513E-03                                                                                                                                                                                                                                                                                                                                                                                                                                                                                              
  7.600000E+02  1.250000E+02 -5.425000E+03  3.773471E-09  4.604612E-10 -1.442321E-10  3.742494E-09  2.211755E-11  2.742793E-12 -8.591364E-13  2.193000E-11  0.000000E+00  0.000000E+00  0.000000E+00  0.000000E+00  0.000000E+00  0.000000E+00  0.000000E+00  0.000000E+00  4.345202E-03  5.302273E-04 -1.660856E-04  4.309531E-03                                                                                                                                                                                                                                                                                                                                                                                                                                                                                              
  7.800000E+02  1.250000E+02 -5.425000E+03  3.782823E-09  4.893711E-10 -1.448547E-10  3.748237E-09  2.217305E-11  2.914998E-12 -8.628447E-13  2.196366E-11  0.000000E+00  0.000000E+00  0.000000E+00  0.000000E+00  0.000000E+00  0.000000E+00  0.000000E+00  0.000000E+00  4.355970E-03  5.635172E-04 -1.668025E-04  4.316144E-03                                                                                                                                                                                                                                                                                                                                                                                                                                                                                              
  8.000000E+02  1.250000E+02 -5.425000E+03  3.793052E-09  5.167259E-10 -1.454438E-10  3.754875E-09  2.223369E-11  3.077941E-12 -8.663537E-13  2.200256E-11  0.000000E+00  0.000000E+00  0.000000E+00  0.000000E+00  0.000000E+00  0.000000E+00  0.000000E+00  0.000000E+00  4.367749E-03  5.950166E-04 -1.674808E-04  4.323787E-03                                                                                                                                                                                                                                                                                                                                                                                                                                                                                              
  9.350000E+02  1.250000E+02 -5.425000E+03  3.856422E-09  6.181697E-10 -1.491776E-10  3.803630E-09  2.260786E-11  3.682203E-12 -8.885948E-13  2.228827E-11  0.000000E+00  0.000000E+00  0.000000E+00  0.000000E+00  0.000000E+00  0.000000E+00  0.000000E+00  0.000000E+00  4.440717E-03  7.118301E-04 -1.717801E-04  4.379926E-03                                                                                                                                                                                                                                                                                                                                                                                                                                                                                              
  1.185000E+03  1.250000E+02 -5.425000E+03  3.968236E-09  6.046241E-10 -1.514949E-10  3.918976E-09  2.326246E-11  3.601520E-12 -9.023983E-13  2.296425E-11  0.000000E+00  0.000000E+00  0.000000E+00  0.000000E+00  0.000000E+00  0.000000E+00  0.000000E+00  0.000000E+00  4.569469E-03  6.962319E-04 -1.744481E-04  4.512746E-03                                                                                                                                                                                                                                                                                                                                                                                                                                                                                              
  1.435000E+03  1.250000E+02 -5.425000E+03  4.016033E-09  2.514455E-10 -1.459247E-10  4.005496E-09  2.353512E-11  1.497767E-12 -8.692196E-13  2.347132E-11  0.000000E+00  0.000000E+00  0.000000E+00  0.000000E+00  0.000000E+00  0.000000E+00  0.000000E+00  0.000000E+00  4.624510E-03  2.895423E-04 -1.680339E-04  4.612378E-03                                                                                                                                                                                                                                                                                                                                                                                                                                                                                              
  1.250000E+02  1.250000E+02 -5.225000E+03  8.114497E-09 -1.435099E-10 -1.414661E-10  8.111994E-09  4.699051E-11 -8.270870E-13 -8.153085E-13  4.697615E-11  0.000000E+00  0.000000E+00  0.000000E+00  0.000000E+00  0.000000E+00  0.000000E+00  0.000000E+00  0.000000E+00  8.882782E-03 -1.496003E-04 -1.474701E-04  8.880298E-03                                                                                                                                                                                                                                                                                                                                                                                                                                                                                              
  3.750000E+02  1.250000E+02 -5.225000E+03  7.758668E-09 -2.245531E-10 -1.637774E-10  7.753688E-09  4.494083E-11 -1.294161E-12 -9.438929E-13  4.491227E-11  0.000000E+00  0.000000E+00  0.000000E+00  0.000000E+00  0.000000E+00  0.000000E+00  0.000000E+00  0.000000E+00  8.502228E-03 -2.340829E-04 -1.707278E-04  8.497290E-03                                                                                                                                                                                                                                                                                                                                                                                                                                                                                              
  6.250000E+02  1.250000E+02 -5.225000E+03  7.326843E-09  1.744429E-10 -1.896449E-10  7.322310E-09  4.245533E-11  1.005362E-12 -1.092974E-12  4.242935E-11  0.000000E+00  0.000000E+00  0.000000E+00  0.000000E+00  0.000000E+00  0.000000E+00  0.000000E+00  0.000000E+00  8.042156E-03  1.818459E-04 -1.976936E-04  8.037669E-03                                                                                                                                                                                                                                                                                                                                                                                                                                                                                              
  7.600000E+02  1.250000E+02 -5.225000E+03  7.477171E-09  5.328924E-10 -1.941006E-10  7.455631E-09  4.332086E-11  3.071205E-12 -1.118655E-12  4.319737E-11  0.000000E+00  0.000000E+00  0.000000E+00  0.000000E+00  0.000000E+00  0.000000E+00  0.000000E+00  0.000000E+00  8.201595E-03  5.555082E-04 -2.023384E-04  8.180259E-03                                                                                                                                                                                                                                                                                                                                                                                                                                                                                              
  7.800000E+02  1.250000E+02 -5.225000E+03  7.506040E-09  5.756383E-10 -1.946542E-10  7.481403E-09  4.348699E-11  3.317563E-12 -1.121845E-12  4.334575E-11  0.000000E+00  0.000000E+00  0.000000E+00  0.000000E+00  0.000000E+00  0.000000E+00  0.000000E+00  0.000000E+00  8.232160E-03  6.000693E-04 -2.029155E-04  8.207752E-03                                                                                                                                                                                                                                                                                                                                                                                                                                                                                              
  8.000000E+02  1.250000E+02 -5.225000E+03  7.552156E-09  6.149413E-10 -1.951059E-10  7.524549E-09  4.375211E-11  3.544079E-12 -1.124449E-12  4.359383E-11  0.000000E+00  0.000000E+00  0.000000E+00  0.000000E+00  0.000000E+00  0.000000E+00  0.000000E+00  0.000000E+00  8.280811E-03  6.410407E-04 -2.033864E-04  8.253456E-03                                                                                                                                                                                                                                                                                                                                                                                                                                                                                              
  9.350000E+02  1.250000E+02 -5.225000E+03  7.793399E-09  7.323901E-10 -1.970124E-10  7.756408E-09  4.514051E-11  4.220981E-12 -1.135438E-12  4.492838E-11  0.000000E+00  0.000000E+00  0.000000E+00  0.000000E+00  0.000000E+00  0.000000E+00  0.000000E+00  0.000000E+00  8.537175E-03  7.634764E-04 -2.053739E-04  8.500487E-03                                                                                                                                                                                                                                                                                                                                                                                                                                                                                              
  1.185000E+03  1.250000E+02 -5.225000E+03  8.235736E-09  7.124302E-10 -1.935547E-10  8.202581E-09  4.768969E-11  4.105963E-12 -1.115516E-12  4.749951E-11  0.000000E+00  0.000000E+00  0.000000E+00  0.000000E+00  0.000000E+00  0.000000E+00  0.000000E+00  0.000000E+00  9.011172E-03  7.426756E-04 -2.017714E-04  8.978248E-03                                                                                                                                                                                                                                                                                                                                                                                                                                                                                              
  1.435000E+03  1.250000E+02 -5.225000E+03  8.541363E-09  2.967493E-10 -1.737823E-10  8.534437E-09  4.945183E-11  1.710267E-12 -1.001567E-12  4.941210E-11  0.000000E+00  0.000000E+00  0.000000E+00  0.000000E+00  0.000000E+00  0.000000E+00  0.000000E+00  0.000000E+00  9.340597E-03  3.093504E-04 -1.811623E-04  9.333715E-03                                                                                                                                                                                                                                                                                                                                                                                                                                                                                              
  1.250000E+02  1.250000E+02 -4.975000E+03  9.136626E-09 -3.871332E-10 -2.561448E-10  9.124826E-09  5.195685E-11 -2.201496E-12 -1.456613E-12  5.188975E-11  0.000000E+00  0.000000E+00  0.000000E+00  0.000000E+00  0.000000E+00  0.000000E+00  0.000000E+00  0.000000E+00  9.284909E-03 -3.846970E-04 -2.545362E-04  9.273444E-03                                                                                                                                                                                                                                                                                                                                                                                                                                                                                              
  3.750000E+02  1.250000E+02 -4.975000E+03  8.337810E-09 -7.798188E-10 -3.506509E-10  8.293854E-09  4.741658E-11 -4.434544E-12 -1.994018E-12  4.716662E-11  0.000000E+00  0.000000E+00  0.000000E+00  0.000000E+00  0.000000E+00  0.000000E+00  0.000000E+00  0.000000E+00  8.476988E-03 -7.748975E-04 -3.484380E-04  8.434302E-03                                                                                                                                                                                                                                                                                                                                                                                                                                                                                              
  6.250000E+02  1.250000E+02 -4.975000E+03  6.915588E-09  2.913165E-11 -4.589730E-10  6.900279E-09  3.934558E-11  1.656494E-13 -2.609974E-12  3.925857E-11  0.000000E+00  0.000000E+00  0.000000E+00  0.000000E+00  0.000000E+00  0.000000E+00  0.000000E+00  0.000000E+00  7.047627E-03  2.894729E-05 -4.560595E-04  7.032796E-03                                                                                                                                                                                                                                                                                                                                                                                                                                                                                              
  7.600000E+02  1.250000E+02 -4.975000E+03  6.928805E-09  9.290539E-10 -4.616442E-10  6.850700E-09  3.943013E-11  5.283142E-12 -2.625167E-12  3.898631E-11  0.000000E+00  0.000000E+00  0.000000E+00  0.000000E+00  0.000000E+00  0.000000E+00  0.000000E+00  0.000000E+00  7.064071E-03  9.231769E-04 -4.587124E-04  6.988449E-03                                                                                                                                                                                                                                                                                                                                                                                                                                                                                              
  7.800000E+02  1.250000E+02 -4.975000E+03  6.924773E-09  1.105591E-09 -4.623325E-10  6.820294E-09  3.940966E-11  6.287053E-12 -2.629082E-12  3.881600E-11  0.000000E+00  0.000000E+00  0.000000E+00  0.000000E+00  0.000000E+00  0.000000E+00  0.000000E+00  0.000000E+00  7.060357E-03  1.098600E-03 -4.593974E-04  6.959215E-03                                                                                                                                                                                                                                                                                                                                                                                                                                                                                              
  8.000000E+02  1.250000E+02 -4.975000E+03  7.897331E-09  1.216294E-09 -4.640390E-10  7.789296E-09  4.491301E-11  6.916612E-12 -2.638797E-12  4.429870E-11  0.000000E+00  0.000000E+00  0.000000E+00  0.000000E+00  0.000000E+00  0.000000E+00  0.000000E+00  0.000000E+00  8.028869E-03  1.208619E-03 -4.610949E-04  7.923974E-03                                                                                                                                                                                                                                                                                                                                                                                                                                                                                              
  9.350000E+02  1.250000E+02 -4.975000E+03  8.423108E-09  1.311900E-09 -4.472950E-10  8.308284E-09  4.790198E-11  7.460358E-12 -2.543603E-12  4.724905E-11  0.000000E+00  0.000000E+00  0.000000E+00  0.000000E+00  0.000000E+00  0.000000E+00  0.000000E+00  0.000000E+00  8.560251E-03  1.303651E-03 -4.444725E-04  8.448718E-03                                                                                                                                                                                                                                                                                                                                                                                                                                                                                              
  1.185000E+03  1.250000E+02 -4.975000E+03  9.299510E-09  1.189092E-09 -4.150689E-10  9.213830E-09  5.288700E-11  6.762075E-12 -2.360382E-12  5.239979E-11  0.000000E+00  0.000000E+00  0.000000E+00  0.000000E+00  0.000000E+00  0.000000E+00  0.000000E+00  0.000000E+00  9.448306E-03  1.181653E-03 -4.124666E-04  9.365044E-03                                                                                                                                                                                                                                                                                                                                                                                                                                                                                              
  1.435000E+03  1.250000E+02 -4.975000E+03  9.905564E-09  4.951315E-10 -3.019080E-10  9.888574E-09  5.633527E-11  2.815720E-12 -1.716898E-12  5.623866E-11  0.000000E+00  0.000000E+00  0.000000E+00  0.000000E+00  0.000000E+00  0.000000E+00  0.000000E+00  0.000000E+00  1.006443E-02  4.920500E-04 -3.000329E-04  1.004791E-02                                                                                                                                                                                                                                                                                                                                                                                                                                                                                              
  1.250000E+02  1.250000E+02 -4.725000E+03  1.018760E-08 -2.109051E-10 -1.373672E-10  1.018449E-08  5.565854E-11 -1.183163E-12 -7.707020E-13  5.564063E-11  0.000000E+00  0.000000E+00  0.000000E+00  0.000000E+00  0.000000E+00  0.000000E+00  0.000000E+00  0.000000E+00  9.855895E-03 -1.985272E-04 -1.294148E-04  9.853046E-03                                                                                                                                                                                                                                                                                                                                                                                                                                                                                              
  3.750000E+02  1.250000E+02 -4.725000E+03  8.903545E-09 -4.106177E-10 -1.879448E-10  8.892085E-09  4.865603E-11 -2.302816E-12 -1.053831E-12  4.859008E-11  0.000000E+00  0.000000E+00  0.000000E+00  0.000000E+00  0.000000E+00  0.000000E+00  0.000000E+00  0.000000E+00  8.608126E-03 -3.859133E-04 -1.765514E-04  8.597658E-03                                                                                                                                                                                                                                                                                                                                                                                                                                                                                              
  6.250000E+02  1.250000E+02 -4.725000E+03  6.407640E-09  4.266090E-11 -2.401202E-10  6.402998E-09  3.505924E-11  2.385735E-13 -1.345069E-12  3.503262E-11  0.000000E+00  0.000000E+00  0.000000E+00  0.000000E+00  0.000000E+00  0.000000E+00  0.000000E+00  0.000000E+00  6.194098E-03  4.002782E-05 -2.245419E-04  6.189898E-03                                                                                                                                                                                                                                                                                                                                                                                                                                                                                              
  7.600000E+02  1.250000E+02 -4.725000E+03  5.974045E-09  5.335742E-10 -2.506526E-10  5.944887E-09  3.272360E-11  2.990023E-12 -1.404087E-12  3.255645E-11  0.000000E+00  0.000000E+00  0.000000E+00  0.000000E+00  0.000000E+00  0.000000E+00  0.000000E+00  0.000000E+00  5.777866E-03  5.005986E-04 -2.344556E-04  5.751363E-03                                                                                                                                                                                                                                                                                                                                                                                                                                                                                              
  7.800000E+02  1.250000E+02 -4.725000E+03  5.837502E-09  6.351301E-10 -2.529491E-10  5.797331E-09  3.198823E-11  3.559668E-12 -1.416972E-12  3.175795E-11  0.000000E+00  0.000000E+00  0.000000E+00  0.000000E+00  0.000000E+00  0.000000E+00  0.000000E+00  0.000000E+00  5.646419E-03  5.958068E-04 -2.366549E-04  5.609907E-03                                                                                                                                                                                                                                                                                                                                                                                                                                                                                              
  8.000000E+02  1.250000E+02 -4.725000E+03  8.292047E-09  6.933233E-10 -2.563042E-10  8.259035E-09  4.531124E-11  3.887286E-12 -1.436289E-12  4.512133E-11  0.000000E+00  0.000000E+00  0.000000E+00  0.000000E+00  0.000000E+00  0.000000E+00  0.000000E+00  0.000000E+00  8.011071E-03  6.511845E-04 -2.398746E-04  7.980957E-03                                                                                                                                                                                                                                                                                                                                                                                                                                                                                              
  9.350000E+02  1.250000E+02 -4.725000E+03  9.002341E-09  7.378809E-10 -2.626819E-10  8.968203E-09  4.919711E-11  4.139030E-12 -1.472846E-12  4.900056E-11  0.000000E+00  0.000000E+00  0.000000E+00  0.000000E+00  0.000000E+00  0.000000E+00  0.000000E+00  0.000000E+00  8.702416E-03  6.943359E-04 -2.466346E-04  8.671166E-03                                                                                                                                                                                                                                                                                                                                                                                                                                                                                              
  1.185000E+03  1.250000E+02 -4.725000E+03  1.027452E-08  6.909253E-10 -2.662199E-10  1.024781E-08  5.614684E-11  3.877263E-12 -1.493582E-12  5.599288E-11  0.000000E+00  0.000000E+00  0.000000E+00  0.000000E+00  0.000000E+00  0.000000E+00  0.000000E+00  0.000000E+00  9.941840E-03  6.511609E-04 -2.505870E-04  9.917328E-03                                                                                                                                                                                                                                                                                                                                                                                                                                                                                              