Title="TOUGHREACT V3.30-OMP flowvector.tec: Liq & Gas Fluxes (kg/s/m^2), Pore Velocities (m/s), & Heat Fluxes (J/s/m2)"                                                                                                                                                                                                                                                                                                                                                                                                                                                                                                                                                                                                                                                                                                         
Variables= "X(m)"     "Y(m)"      "Z(m)"     "FluxLiq"   "FluxLiq_X"   "FluxLiq_Y"   "FluxLiq_Z"   "PorVelLiq"  "PorVelLiqX"  "PorVelLiqY"  "PorVelLiqZ"     "FluxGas"   "FluxGas_X"   "FluxGas_Y"   "FluxGas_Z"   "PorVelGas"  "PorVelGasX"  "PorVelGasY"  "PorVelGasZ"    "HeatFlux"  "HeatFlux_X"  "HeatFlux_Y"  "HeatFlux_Z"                                                                                                                                                                                                                                                                                                                                                                                                                                                                                                
Zone T= "8.66000000E+10 sec" I=     9 J=    10 K=    23 F=Point
  1.250000E+02  1.250000E+02 -5.425000E+03  3.921069E-09 -8.588557E-11 -1.174986E-10  3.918367E-09  2.301063E-11 -5.131284E-13 -7.020020E-13  2.299420E-11  0.000000E+00  0.000000E+00  0.000000E+00  0.000000E+00  0.000000E+00  0.000000E+00  0.000000E+00  0.000000E+00  4.551464E-03 -9.969367E-05 -1.363891E-04  4.548328E-03                                                                                                                                                                                                                                                                                                                                                                                                                                                                                              
  3.750000E+02  1.250000E+02 -5.425000E+03  3.834086E-09 -1.010086E-10 -1.278054E-10  3.830624E-09  2.250033E-11 -6.034816E-13 -7.635813E-13  2.247927E-11  0.000000E+00  0.000000E+00  0.000000E+00  0.000000E+00  0.000000E+00  0.000000E+00  0.000000E+00  0.000000E+00  4.450505E-03 -1.172481E-04 -1.483534E-04  4.446486E-03                                                                                                                                                                                                                                                                                                                                                                                                                                                                                              
  6.250000E+02  1.250000E+02 -5.425000E+03  3.746649E-09  2.069848E-10 -1.404314E-10  3.738290E-09  2.198827E-11  1.236644E-12 -8.390170E-13  2.193743E-11  0.000000E+00  0.000000E+00  0.000000E+00  0.000000E+00  0.000000E+00  0.000000E+00  0.000000E+00  0.000000E+00  4.349020E-03  2.402630E-04 -1.630099E-04  4.339317E-03                                                                                                                                                                                                                                                                                                                                                                                                                                                                                              
  7.600000E+02  1.250000E+02 -5.425000E+03  3.801930E-09  4.591256E-10 -1.446695E-10  3.771332E-09  2.231744E-11  2.743076E-12 -8.643378E-13  2.213135E-11  0.000000E+00  0.000000E+00  0.000000E+00  0.000000E+00  0.000000E+00  0.000000E+00  0.000000E+00  0.000000E+00  4.413186E-03  5.329418E-04 -1.679293E-04  4.377669E-03                                                                                                                                                                                                                                                                                                                                                                                                                                                                                              
  7.800000E+02  1.250000E+02 -5.425000E+03  3.811279E-09  4.882131E-10 -1.452618E-10  3.777088E-09  2.237307E-11  2.916862E-12 -8.678765E-13  2.216513E-11  0.000000E+00  0.000000E+00  0.000000E+00  0.000000E+00  0.000000E+00  0.000000E+00  0.000000E+00  0.000000E+00  4.424038E-03  5.667057E-04 -1.686168E-04  4.384350E-03                                                                                                                                                                                                                                                                                                                                                                                                                                                                                              
  8.000000E+02  1.250000E+02 -5.425000E+03  3.821520E-09  5.157425E-10 -1.458175E-10  3.783750E-09  2.243393E-11  3.081338E-12 -8.711965E-13  2.220423E-11  0.000000E+00  0.000000E+00  0.000000E+00  0.000000E+00  0.000000E+00  0.000000E+00  0.000000E+00  0.000000E+00  4.435925E-03  5.986611E-04 -1.692618E-04  4.392083E-03                                                                                                                                                                                                                                                                                                                                                                                                                                                                                              
  9.350000E+02  1.250000E+02 -5.425000E+03  3.885027E-09  6.179483E-10 -1.493196E-10  3.832659E-09  2.280973E-11  3.691973E-12 -8.921198E-13  2.249127E-11  0.000000E+00  0.000000E+00  0.000000E+00  0.000000E+00  0.000000E+00  0.000000E+00  0.000000E+00  0.000000E+00  4.509639E-03  7.172987E-04 -1.733266E-04  4.448852E-03                                                                                                                                                                                                                                                                                                                                                                                                                                                                                              
  1.185000E+03  1.250000E+02 -5.425000E+03  3.997003E-09  6.050495E-10 -1.511112E-10  3.948052E-09  2.346620E-11  3.614911E-12 -9.028246E-13  2.316851E-11  0.000000E+00  0.000000E+00  0.000000E+00  0.000000E+00  0.000000E+00  0.000000E+00  0.000000E+00  0.000000E+00  4.639615E-03  7.023257E-04 -1.754059E-04  4.582794E-03                                                                                                                                                                                                                                                                                                                                                                                                                                                                                              
  1.435000E+03  1.250000E+02 -5.425000E+03  4.044862E-09  2.516485E-10 -1.450984E-10  4.034418E-09  2.373895E-11  1.503492E-12 -8.669011E-13  2.367543E-11  0.000000E+00  0.000000E+00  0.000000E+00  0.000000E+00  0.000000E+00  0.000000E+00  0.000000E+00  0.000000E+00  4.695172E-03  2.921069E-04 -1.684263E-04  4.683049E-03                                                                                                                                                                                                                                                                                                                                                                                                                                                                                              
  1.250000E+02  1.250000E+02 -5.225000E+03  8.178873E-09 -1.447654E-10 -1.416489E-10  8.176365E-09  4.739739E-11 -8.343429E-13 -8.163817E-13  4.738302E-11  0.000000E+00  0.000000E+00  0.000000E+00  0.000000E+00  0.000000E+00  0.000000E+00  0.000000E+00  0.000000E+00  8.989786E-03 -1.509174E-04 -1.476689E-04  8.987306E-03                                                                                                                                                                                                                                                                                                                                                                                                                                                                                              
  3.750000E+02  1.250000E+02 -5.225000E+03  7.820807E-09 -2.278184E-10 -1.639150E-10  7.815769E-09  4.533398E-11 -1.313011E-12 -9.447082E-13  4.530511E-11  0.000000E+00  0.000000E+00  0.000000E+00  0.000000E+00  0.000000E+00  0.000000E+00  0.000000E+00  0.000000E+00  8.605962E-03 -2.374998E-04 -1.708805E-04  8.600987E-03                                                                                                                                                                                                                                                                                                                                                                                                                                                                                              
  6.250000E+02  1.250000E+02 -5.225000E+03  7.385384E-09  1.704291E-10 -1.895638E-10  7.380984E-09  4.282688E-11  9.822523E-13 -1.092533E-12  4.280167E-11  0.000000E+00  0.000000E+00  0.000000E+00  0.000000E+00  0.000000E+00  0.000000E+00  0.000000E+00  0.000000E+00  8.141143E-03  1.776714E-04 -1.976195E-04  8.136804E-03                                                                                                                                                                                                                                                                                                                                                                                                                                                                                              
  7.600000E+02  1.250000E+02 -5.225000E+03  7.535075E-09  5.288889E-10 -1.936833E-10  7.513995E-09  4.368899E-11  3.048204E-12 -1.116276E-12  4.356822E-11  0.000000E+00  0.000000E+00  0.000000E+00  0.000000E+00  0.000000E+00  0.000000E+00  0.000000E+00  0.000000E+00  8.300183E-03  5.513647E-04 -2.019142E-04  8.279388E-03                                                                                                                                                                                                                                                                                                                                                                                                                                                                                              
  7.800000E+02  1.250000E+02 -5.225000E+03  7.563884E-09  5.716435E-10 -1.941849E-10  7.539751E-09  4.385481E-11  3.294617E-12 -1.119167E-12  4.371656E-11  0.000000E+00  0.000000E+00  0.000000E+00  0.000000E+00  0.000000E+00  0.000000E+00  0.000000E+00  0.000000E+00  8.330730E-03  5.959373E-04 -2.024371E-04  8.306921E-03                                                                                                                                                                                                                                                                                                                                                                                                                                                                                              
  8.000000E+02  1.250000E+02 -5.225000E+03  7.609988E-09  6.109523E-10 -1.945827E-10  7.582928E-09  4.411992E-11  3.521173E-12 -1.121460E-12  4.396489E-11  0.000000E+00  0.000000E+00  0.000000E+00  0.000000E+00  0.000000E+00  0.000000E+00  0.000000E+00  0.000000E+00  8.379427E-03  6.369171E-04 -2.028518E-04  8.352723E-03                                                                                                                                                                                                                                                                                                                                                                                                                                                                                              
  9.350000E+02  1.250000E+02 -5.225000E+03  7.851196E-09  7.283015E-10 -1.961112E-10  7.814883E-09  4.550855E-11  4.197517E-12 -1.130271E-12  4.530046E-11  0.000000E+00  0.000000E+00  0.000000E+00  0.000000E+00  0.000000E+00  0.000000E+00  0.000000E+00  0.000000E+00  8.636207E-03  7.592559E-04 -2.044455E-04  8.600338E-03                                                                                                                                                                                                                                                                                                                                                                                                                                                                                              
  1.185000E+03  1.250000E+02 -5.225000E+03  8.292465E-09  7.087080E-10 -1.918320E-10  8.259898E-09  4.805269E-11  4.084610E-12 -1.105614E-12  4.786601E-11  0.000000E+00  0.000000E+00  0.000000E+00  0.000000E+00  0.000000E+00  0.000000E+00  0.000000E+00  0.000000E+00  9.110205E-03  7.388367E-04 -1.999867E-04  9.077993E-03                                                                                                                                                                                                                                                                                                                                                                                                                                                                                              
  1.435000E+03  1.250000E+02 -5.225000E+03  8.596518E-09  2.951221E-10 -1.714169E-10  8.589741E-09  4.980669E-11  1.700931E-12 -9.879592E-13  4.976783E-11  0.000000E+00  0.000000E+00  0.000000E+00  0.000000E+00  0.000000E+00  0.000000E+00  0.000000E+00  0.000000E+00  9.438874E-03  3.076716E-04 -1.787068E-04  9.432165E-03                                                                                                                                                                                                                                                                                                                                                                                                                                                                                              
  1.250000E+02  1.250000E+02 -4.975000E+03  9.203199E-09 -3.884520E-10 -2.563338E-10  9.191424E-09  5.233652E-11 -2.209027E-12 -1.457708E-12  5.226956E-11  0.000000E+00  0.000000E+00  0.000000E+00  0.000000E+00  0.000000E+00  0.000000E+00  0.000000E+00  0.000000E+00  9.353082E-03 -3.860172E-04 -2.547305E-04  9.341640E-03                                                                                                                                                                                                                                                                                                                                                                                                                                                                                              
  3.750000E+02  1.250000E+02 -4.975000E+03  8.401513E-09 -7.837223E-10 -3.508687E-10  8.357517E-09  4.777977E-11 -4.456803E-12 -1.995284E-12  4.752959E-11  0.000000E+00  0.000000E+00  0.000000E+00  0.000000E+00  0.000000E+00  0.000000E+00  0.000000E+00  0.000000E+00  8.542190E-03 -7.787949E-04 -3.486627E-04  8.499466E-03                                                                                                                                                                                                                                                                                                                                                                                                                                                                                              
  6.250000E+02  1.250000E+02 -4.975000E+03  6.973930E-09  2.309652E-11 -4.588762E-10  6.958778E-09  3.967808E-11  1.313313E-13 -2.609457E-12  3.959196E-11  0.000000E+00  0.000000E+00  0.000000E+00  0.000000E+00  0.000000E+00  0.000000E+00  0.000000E+00  0.000000E+00  7.107340E-03  2.295088E-05 -4.559727E-04  7.092661E-03                                                                                                                                                                                                                                                                                                                                                                                                                                                                                              
  7.600000E+02  1.250000E+02 -4.975000E+03  6.983481E-09  9.221362E-10 -4.606453E-10  6.906988E-09  3.974185E-11  5.243874E-12 -2.619521E-12  3.930718E-11  0.000000E+00  0.000000E+00  0.000000E+00  0.000000E+00  0.000000E+00  0.000000E+00  0.000000E+00  0.000000E+00  7.120168E-03  9.163241E-04 -4.577296E-04  7.046107E-03                                                                                                                                                                                                                                                                                                                                                                                                                                                                                              
  7.800000E+02  1.250000E+02 -4.975000E+03  6.978581E-09  1.098662E-09 -4.611922E-10  6.876106E-09  3.971646E-11  6.247736E-12 -2.622632E-12  3.913419E-11  0.000000E+00  0.000000E+00  0.000000E+00  0.000000E+00  0.000000E+00  0.000000E+00  0.000000E+00  0.000000E+00  7.115601E-03  1.091741E-03 -4.582742E-04  7.016399E-03                                                                                                                                                                                                                                                                                                                                                                                                                                                                                              
  8.000000E+02  1.250000E+02 -4.975000E+03  7.952577E-09  1.209257E-09 -4.627517E-10  7.846466E-09  4.522806E-11  6.876689E-12 -2.631512E-12  4.462470E-11  0.000000E+00  0.000000E+00  0.000000E+00  0.000000E+00  0.000000E+00  0.000000E+00  0.000000E+00  0.000000E+00  8.085559E-03  1.201655E-03 -4.598258E-04  7.982534E-03                                                                                                                                                                                                                                                                                                                                                                                                                                                                                              
  9.350000E+02  1.250000E+02 -4.975000E+03  8.476765E-09  1.303476E-09 -4.449212E-10  8.364122E-09  4.820814E-11  7.412555E-12 -2.530138E-12  4.756760E-11  0.000000E+00  0.000000E+00  0.000000E+00  0.000000E+00  0.000000E+00  0.000000E+00  0.000000E+00  0.000000E+00  8.615391E-03  1.295311E-03 -4.421238E-04  8.505978E-03                                                                                                                                                                                                                                                                                                                                                                                                                                                                                              
  1.185000E+03  1.250000E+02 -4.975000E+03  9.347281E-09  1.179637E-09 -4.103759E-10  9.263461E-09  5.315997E-11  6.708400E-12 -2.333727E-12  5.268333E-11  0.000000E+00  0.000000E+00  0.000000E+00  0.000000E+00  0.000000E+00  0.000000E+00  0.000000E+00  0.000000E+00  9.497583E-03  1.172287E-03 -4.078134E-04  9.416130E-03                                                                                                                                                                                                                                                                                                                                                                                                                                                                                              
  1.435000E+03  1.250000E+02 -4.975000E+03  9.944743E-09  4.905253E-10 -2.953105E-10  9.928247E-09  5.655969E-11  2.789566E-12 -1.679404E-12  5.646589E-11  0.000000E+00  0.000000E+00  0.000000E+00  0.000000E+00  0.000000E+00  0.000000E+00  0.000000E+00  0.000000E+00  1.010509E-02  4.874856E-04 -2.934845E-04  1.008906E-02                                                                                                                                                                                                                                                                                                                                                                                                                                                                                              
  1.250000E+02  1.250000E+02 -4.725000E+03  1.025273E-08 -2.117641E-10 -1.375388E-10  1.024962E-08  5.601572E-11 -1.188000E-12 -7.716765E-13  5.599780E-11  0.000000E+00  0.000000E+00  0.000000E+00  0.000000E+00  0.000000E+00  0.000000E+00  0.000000E+00  0.000000E+00  9.919292E-03 -1.993420E-04 -1.295806E-04  9.916442E-03                                                                                                                                                                                                                                                                                                                                                                                                                                                                                              
  3.750000E+02  1.250000E+02 -4.725000E+03  8.966060E-09 -4.135276E-10 -1.880727E-10  8.954544E-09  4.899866E-11 -2.319167E-12 -1.054563E-12  4.893238E-11  0.000000E+00  0.000000E+00  0.000000E+00  0.000000E+00  0.000000E+00  0.000000E+00  0.000000E+00  0.000000E+00  8.668866E-03 -3.886571E-04 -1.766764E-04  8.658347E-03                                                                                                                                                                                                                                                                                                                                                                                                                                                                                              
  6.250000E+02  1.250000E+02 -4.725000E+03  6.466587E-09  3.417037E-11 -2.395208E-10  6.462059E-09  3.538152E-11  1.909901E-13 -1.341727E-12  3.535556E-11  0.000000E+00  0.000000E+00  0.000000E+00  0.000000E+00  0.000000E+00  0.000000E+00  0.000000E+00  0.000000E+00  6.251144E-03  3.206212E-05 -2.239853E-04  6.247048E-03                                                                                                                                                                                                                                                                                                                                                                                                                                                                                              
  7.600000E+02  1.250000E+02 -4.725000E+03  6.036343E-09  5.194584E-10 -2.476237E-10  6.008850E-09  3.306220E-11  2.910958E-12 -1.387137E-12  3.290458E-11  0.000000E+00  0.000000E+00  0.000000E+00  0.000000E+00  0.000000E+00  0.000000E+00  0.000000E+00  0.000000E+00  5.837983E-03  4.873668E-04 -2.316264E-04  5.812991E-03                                                                                                                                                                                                                                                                                                                                                                                                                                                                                              
  7.800000E+02  1.250000E+02 -4.725000E+03  5.899719E-09  6.183838E-10 -2.494671E-10  5.861915E-09  3.232592E-11  3.465856E-12 -1.397484E-12  3.210919E-11  0.000000E+00  0.000000E+00  0.000000E+00  0.000000E+00  0.000000E+00  0.000000E+00  0.000000E+00  0.000000E+00  5.706449E-03  5.801108E-04 -2.334013E-04  5.672086E-03                                                                                                                                                                                                                                                                                                                                                                                                                                                                                              
  8.000000E+02  1.250000E+02 -4.725000E+03  8.336688E-09  6.754165E-10 -2.522646E-10  8.305452E-09  4.555686E-11  3.786940E-12 -1.413670E-12  4.537717E-11  0.000000E+00  0.000000E+00  0.000000E+00  0.000000E+00  0.000000E+00  0.000000E+00  0.000000E+00  0.000000E+00  8.054780E-03  6.343825E-04 -2.360983E-04  8.026288E-03                                                                                                                                                                                                                                                                                                                                                                                                                                                                                              
  9.350000E+02  1.250000E+02 -4.725000E+03  9.046074E-09  7.176482E-10 -2.550412E-10  9.013955E-09  4.943738E-11  4.025594E-12 -1.430025E-12  4.925246E-11  0.000000E+00  0.000000E+00  0.000000E+00  0.000000E+00  0.000000E+00  0.000000E+00  0.000000E+00  0.000000E+00  8.745265E-03  6.753161E-04 -2.394667E-04  8.715863E-03                                                                                                                                                                                                                                                                                                                                                                                                                                                                                              
  1.185000E+03  1.250000E+02 -4.725000E+03  1.030074E-08  6.658553E-10 -2.513731E-10  1.027612E-08  5.629253E-11  3.736628E-12 -1.410308E-12  5.615067E-11  0.000000E+00  0.000000E+00  0.000000E+00  0.000000E+00  0.000000E+00  0.000000E+00  0.000000E+00  0.000000E+00  9.968011E-03  6.275482E-04 -2.366190E-04  9.945423E-03                                                                                                                                                                                                                                                                                                                                                                                                                                                                                              