Title="TOUGHREACT V3.30-OMP flowvector.tec: Liq & Gas Fluxes (kg/s/m^2), Pore Velocities (m/s), & Heat Fluxes (J/s/m2)"                                                                                                                                                                                                                                                                                                                                                                                                                                                                                                                                                                                                                                                                                                         
Variables= "X(m)"     "Y(m)"      "Z(m)"     "FluxLiq"   "FluxLiq_X"   "FluxLiq_Y"   "FluxLiq_Z"   "PorVelLiq"  "PorVelLiqX"  "PorVelLiqY"  "PorVelLiqZ"     "FluxGas"   "FluxGas_X"   "FluxGas_Y"   "FluxGas_Z"   "PorVelGas"  "PorVelGasX"  "PorVelGasY"  "PorVelGasZ"    "HeatFlux"  "HeatFlux_X"  "HeatFlux_Y"  "HeatFlux_Z"                                                                                                                                                                                                                                                                                                                                                                                                                                                                                                
Zone T= "8.33000000E+10 sec" I=     9 J=    10 K=    23 F=Point
  1.250000E+02  1.250000E+02 -5.425000E+03  3.910874E-09 -8.536054E-11 -1.171891E-10  3.908186E-09  2.293967E-11 -5.094838E-13 -6.994557E-13  2.292334E-11  0.000000E+00  0.000000E+00  0.000000E+00  0.000000E+00  0.000000E+00  0.000000E+00  0.000000E+00  0.000000E+00  4.527666E-03 -9.882311E-05 -1.356713E-04  4.524554E-03                                                                                                                                                                                                                                                                                                                                                                                                                                                                                              
  3.750000E+02  1.250000E+02 -5.425000E+03  3.824157E-09 -9.992055E-11 -1.275177E-10  3.820724E-09  2.243117E-11 -5.963868E-13 -7.611039E-13  2.241032E-11  0.000000E+00  0.000000E+00  0.000000E+00  0.000000E+00  0.000000E+00  0.000000E+00  0.000000E+00  0.000000E+00  4.427281E-03 -1.156795E-04 -1.476294E-04  4.423306E-03                                                                                                                                                                                                                                                                                                                                                                                                                                                                                              
  6.250000E+02  1.250000E+02 -5.425000E+03  3.737147E-09  2.075288E-10 -1.401838E-10  3.728746E-09  2.192185E-11  1.238660E-12 -8.367033E-13  2.187083E-11  0.000000E+00  0.000000E+00  0.000000E+00  0.000000E+00  0.000000E+00  0.000000E+00  0.000000E+00  0.000000E+00  4.326558E-03  2.402596E-04 -1.622936E-04  4.316832E-03                                                                                                                                                                                                                                                                                                                                                                                                                                                                                              
  7.600000E+02  1.250000E+02 -5.425000E+03  3.792408E-09  4.590466E-10 -1.444563E-10  3.761750E-09  2.225060E-11  2.739873E-12 -8.622045E-13  2.206443E-11  0.000000E+00  0.000000E+00  0.000000E+00  0.000000E+00  0.000000E+00  0.000000E+00  0.000000E+00  0.000000E+00  4.390532E-03  5.314458E-04 -1.672399E-04  4.355040E-03                                                                                                                                                                                                                                                                                                                                                                                                                                                                                              
  7.800000E+02  1.250000E+02 -5.425000E+03  3.801751E-09  4.880751E-10 -1.450551E-10  3.767499E-09  2.230615E-11  2.913134E-12 -8.657785E-13  2.209815E-11  0.000000E+00  0.000000E+00  0.000000E+00  0.000000E+00  0.000000E+00  0.000000E+00  0.000000E+00  0.000000E+00  4.401348E-03  5.650525E-04 -1.679331E-04  4.361694E-03                                                                                                                                                                                                                                                                                                                                                                                                                                                                                              
  8.000000E+02  1.250000E+02 -5.425000E+03  3.811975E-09  5.155352E-10 -1.456185E-10  3.774145E-09  2.236686E-11  3.077032E-12 -8.691413E-13  2.213714E-11  0.000000E+00  0.000000E+00  0.000000E+00  0.000000E+00  0.000000E+00  0.000000E+00  0.000000E+00  0.000000E+00  4.413184E-03  5.968434E-04 -1.685853E-04  4.369388E-03                                                                                                                                                                                                                                                                                                                                                                                                                                                                                              
  9.350000E+02  1.250000E+02 -5.425000E+03  3.875389E-09  6.174463E-10 -1.491715E-10  3.822977E-09  2.274183E-11  3.685301E-12 -8.903476E-13  2.242358E-11  0.000000E+00  0.000000E+00  0.000000E+00  0.000000E+00  0.000000E+00  0.000000E+00  0.000000E+00  0.000000E+00  4.486597E-03  7.148272E-04 -1.726984E-04  4.425918E-03                                                                                                                                                                                                                                                                                                                                                                                                                                                                                              
  1.185000E+03  1.250000E+02 -5.425000E+03  3.987245E-09  6.044303E-10 -1.510561E-10  3.938270E-09  2.339730E-11  3.607615E-12 -9.015969E-13  2.309991E-11  0.000000E+00  0.000000E+00  0.000000E+00  0.000000E+00  0.000000E+00  0.000000E+00  0.000000E+00  0.000000E+00  4.616091E-03  6.997579E-04 -1.748799E-04  4.559392E-03                                                                                                                                                                                                                                                                                                                                                                                                                                                                                              
  1.435000E+03  1.250000E+02 -5.425000E+03  4.035030E-09  2.514018E-10 -1.451710E-10  4.024573E-09  2.366972E-11  1.500523E-12 -8.664711E-13  2.360622E-11  0.000000E+00  0.000000E+00  0.000000E+00  0.000000E+00  0.000000E+00  0.000000E+00  0.000000E+00  0.000000E+00  4.671416E-03  2.910514E-04 -1.680665E-04  4.659310E-03                                                                                                                                                                                                                                                                                                                                                                                                                                                                                              
  1.250000E+02  1.250000E+02 -5.225000E+03  8.157665E-09 -1.444286E-10 -1.415651E-10  8.155157E-09  4.726322E-11 -8.323951E-13 -8.158921E-13  4.724885E-11  0.000000E+00  0.000000E+00  0.000000E+00  0.000000E+00  0.000000E+00  0.000000E+00  0.000000E+00  0.000000E+00  8.954435E-03 -1.505635E-04 -1.475787E-04  8.951953E-03                                                                                                                                                                                                                                                                                                                                                                                                                                                                                              
  3.750000E+02  1.250000E+02 -5.225000E+03  7.800350E-09 -2.269859E-10 -1.638351E-10  7.795326E-09  4.520443E-11 -1.308203E-12 -9.442406E-13  4.517563E-11  0.000000E+00  0.000000E+00  0.000000E+00  0.000000E+00  0.000000E+00  0.000000E+00  0.000000E+00  0.000000E+00  8.571707E-03 -2.366274E-04 -1.707941E-04  8.566738E-03                                                                                                                                                                                                                                                                                                                                                                                                                                                                                              
  6.250000E+02  1.250000E+02 -5.225000E+03  7.366029E-09  1.713033E-10 -1.895253E-10  7.361598E-09  4.270396E-11  9.872830E-13 -1.092302E-12  4.267857E-11  0.000000E+00  0.000000E+00  0.000000E+00  0.000000E+00  0.000000E+00  0.000000E+00  0.000000E+00  0.000000E+00  8.108365E-03  1.785794E-04 -1.975758E-04  8.103990E-03                                                                                                                                                                                                                                                                                                                                                                                                                                                                                              
  7.600000E+02  1.250000E+02 -5.225000E+03  7.515781E-09  5.296372E-10 -1.937193E-10  7.494593E-09  4.356633E-11  3.052492E-12 -1.116475E-12  4.344492E-11  0.000000E+00  0.000000E+00  0.000000E+00  0.000000E+00  0.000000E+00  0.000000E+00  0.000000E+00  0.000000E+00  8.267378E-03  5.521346E-04 -2.019480E-04  8.246448E-03                                                                                                                                                                                                                                                                                                                                                                                                                                                                                              
  7.800000E+02  1.250000E+02 -5.225000E+03  7.544587E-09  5.723751E-10 -1.942325E-10  7.520336E-09  4.373214E-11  3.298809E-12 -1.119433E-12  4.359317E-11  0.000000E+00  0.000000E+00  0.000000E+00  0.000000E+00  0.000000E+00  0.000000E+00  0.000000E+00  0.000000E+00  8.297908E-03  5.966890E-04 -2.024830E-04  8.273949E-03                                                                                                                                                                                                                                                                                                                                                                                                                                                                                              
  8.000000E+02  1.250000E+02 -5.225000E+03  7.590668E-09  6.116690E-10 -1.946424E-10  7.563479E-09  4.399709E-11  3.525275E-12 -1.121795E-12  4.384128E-11  0.000000E+00  0.000000E+00  0.000000E+00  0.000000E+00  0.000000E+00  0.000000E+00  0.000000E+00  0.000000E+00  8.346560E-03  6.376524E-04 -2.029104E-04  8.319693E-03                                                                                                                                                                                                                                                                                                                                                                                                                                                                                              
  9.350000E+02  1.250000E+02 -5.225000E+03  7.831738E-09  7.290039E-10 -1.962563E-10  7.795265E-09  4.538478E-11  4.201532E-12 -1.131098E-12  4.517572E-11  0.000000E+00  0.000000E+00  0.000000E+00  0.000000E+00  0.000000E+00  0.000000E+00  0.000000E+00  0.000000E+00  8.603044E-03  7.599740E-04 -2.045931E-04  8.566968E-03                                                                                                                                                                                                                                                                                                                                                                                                                                                                                              
  1.185000E+03  1.250000E+02 -5.225000E+03  8.272986E-09  7.093397E-10 -1.921646E-10  8.240279E-09  4.792843E-11  4.088218E-12 -1.107522E-12  4.774091E-11  0.000000E+00  0.000000E+00  0.000000E+00  0.000000E+00  0.000000E+00  0.000000E+00  0.000000E+00  0.000000E+00  9.076641E-03  7.394813E-04 -2.003296E-04  9.044249E-03                                                                                                                                                                                                                                                                                                                                                                                                                                                                                              
  1.435000E+03  1.250000E+02 -5.225000E+03  8.577154E-09  2.954062E-10 -1.719056E-10  8.570341E-09  4.968278E-11  1.702554E-12 -9.907674E-13  4.964372E-11  0.000000E+00  0.000000E+00  0.000000E+00  0.000000E+00  0.000000E+00  0.000000E+00  0.000000E+00  0.000000E+00  9.405123E-03  3.079618E-04 -1.792127E-04  9.398372E-03                                                                                                                                                                                                                                                                                                                                                                                                                                                                                              
  1.250000E+02  1.250000E+02 -4.975000E+03  9.181381E-09 -3.880963E-10 -2.562559E-10  9.169595E-09  5.221209E-11 -2.206994E-12 -1.457258E-12  5.214507E-11  0.000000E+00  0.000000E+00  0.000000E+00  0.000000E+00  0.000000E+00  0.000000E+00  0.000000E+00  0.000000E+00  9.330733E-03 -3.856605E-04 -2.546510E-04  9.319281E-03                                                                                                                                                                                                                                                                                                                                                                                                                                                                                              
  3.750000E+02  1.250000E+02 -4.975000E+03  8.380693E-09 -7.827148E-10 -3.507636E-10  8.336686E-09  4.766106E-11 -4.451054E-12 -1.994678E-12  4.741082E-11  0.000000E+00  0.000000E+00  0.000000E+00  0.000000E+00  0.000000E+00  0.000000E+00  0.000000E+00  0.000000E+00  8.520872E-03 -7.777877E-04 -3.485555E-04  8.478138E-03                                                                                                                                                                                                                                                                                                                                                                                                                                                                                              
  6.250000E+02  1.250000E+02 -4.975000E+03  6.954831E-09  2.445474E-11 -4.588147E-10  6.939637E-09  3.956923E-11  1.390547E-13 -2.609097E-12  3.948287E-11  0.000000E+00  0.000000E+00  0.000000E+00  0.000000E+00  0.000000E+00  0.000000E+00  0.000000E+00  0.000000E+00  7.087786E-03  2.430035E-05 -4.559084E-04  7.073067E-03                                                                                                                                                                                                                                                                                                                                                                                                                                                                                              
  7.600000E+02  1.250000E+02 -4.975000E+03  6.965207E-09  9.235356E-10 -4.607879E-10  6.888314E-09  3.963767E-11  5.251810E-12 -2.620321E-12  3.920073E-11  0.000000E+00  0.000000E+00  0.000000E+00  0.000000E+00  0.000000E+00  0.000000E+00  0.000000E+00  0.000000E+00  7.101423E-03  9.177077E-04 -4.578680E-04  7.026975E-03                                                                                                                                                                                                                                                                                                                                                                                                                                                                                              
  7.800000E+02  1.250000E+02 -4.975000E+03  6.960514E-09  1.100028E-09 -4.613668E-10  6.857538E-09  3.961345E-11  6.255472E-12 -2.623614E-12  3.902833E-11  0.000000E+00  0.000000E+00  0.000000E+00  0.000000E+00  0.000000E+00  0.000000E+00  0.000000E+00  0.000000E+00  7.097058E-03  1.093089E-03 -4.584444E-04  6.997373E-03                                                                                                                                                                                                                                                                                                                                                                                                                                                                                              
  8.000000E+02  1.250000E+02 -4.975000E+03  7.933971E-09  1.210623E-09 -4.629594E-10  7.827385E-09  4.512196E-11  6.884423E-12 -2.632682E-12  4.451590E-11  0.000000E+00  0.000000E+00  0.000000E+00  0.000000E+00  0.000000E+00  0.000000E+00  0.000000E+00  0.000000E+00  8.066474E-03  1.203002E-03 -4.600290E-04  7.962987E-03                                                                                                                                                                                                                                                                                                                                                                                                                                                                                              
  9.350000E+02  1.250000E+02 -4.975000E+03  8.458248E-09  1.305153E-09 -4.453795E-10  8.345069E-09  4.810251E-11  7.422058E-12 -2.532733E-12  4.745892E-11  0.000000E+00  0.000000E+00  0.000000E+00  0.000000E+00  0.000000E+00  0.000000E+00  0.000000E+00  0.000000E+00  8.596380E-03  1.296967E-03 -4.425758E-04  8.486446E-03                                                                                                                                                                                                                                                                                                                                                                                                                                                                                              
  1.185000E+03  1.250000E+02 -4.975000E+03  9.329718E-09  1.181578E-09 -4.113669E-10  9.245447E-09  5.305968E-11  6.719410E-12 -2.339352E-12  5.258048E-11  0.000000E+00  0.000000E+00  0.000000E+00  0.000000E+00  0.000000E+00  0.000000E+00  0.000000E+00  0.000000E+00  9.479509E-03  1.174206E-03 -4.087947E-04  9.397617E-03                                                                                                                                                                                                                                                                                                                                                                                                                                                                                              
  1.435000E+03  1.250000E+02 -4.975000E+03  9.928788E-09  4.914825E-10 -2.967579E-10  9.912175E-09  5.646847E-11  2.794997E-12 -1.687628E-12  5.637400E-11  0.000000E+00  0.000000E+00  0.000000E+00  0.000000E+00  0.000000E+00  0.000000E+00  0.000000E+00  0.000000E+00  1.008862E-02  4.884325E-04 -2.949203E-04  1.007247E-02                                                                                                                                                                                                                                                                                                                                                                                                                                                                                              
  1.250000E+02  1.250000E+02 -4.725000E+03  1.023150E-08 -2.115322E-10 -1.374777E-10  1.022839E-08  5.589927E-11 -1.186694E-12 -7.713299E-13  5.588135E-11  0.000000E+00  0.000000E+00  0.000000E+00  0.000000E+00  0.000000E+00  0.000000E+00  0.000000E+00  0.000000E+00  9.898622E-03 -1.991217E-04 -1.295217E-04  9.895771E-03                                                                                                                                                                                                                                                                                                                                                                                                                                                                                              
  3.750000E+02  1.250000E+02 -4.725000E+03  8.945812E-09 -4.127961E-10 -1.880104E-10  8.934305E-09  4.888767E-11 -2.315054E-12 -1.054209E-12  4.882144E-11  0.000000E+00  0.000000E+00  0.000000E+00  0.000000E+00  0.000000E+00  0.000000E+00  0.000000E+00  0.000000E+00  8.649187E-03 -3.879664E-04 -1.766163E-04  8.638676E-03                                                                                                                                                                                                                                                                                                                                                                                                                                                                                              
  6.250000E+02  1.250000E+02 -4.725000E+03  6.447873E-09  3.606928E-11 -2.396134E-10  6.443318E-09  3.527913E-11  2.016322E-13 -1.342241E-12  3.525301E-11  0.000000E+00  0.000000E+00  0.000000E+00  0.000000E+00  0.000000E+00  0.000000E+00  0.000000E+00  0.000000E+00  6.233020E-03  3.384359E-05 -2.240705E-04  6.228899E-03                                                                                                                                                                                                                                                                                                                                                                                                                                                                                              
  7.600000E+02  1.250000E+02 -4.725000E+03  6.017023E-09  5.225200E-10 -2.482581E-10  5.989149E-09  3.295693E-11  2.928103E-12 -1.390685E-12  3.279713E-11  0.000000E+00  0.000000E+00  0.000000E+00  0.000000E+00  0.000000E+00  0.000000E+00  0.000000E+00  0.000000E+00  5.819309E-03  4.902354E-04 -2.322185E-04  5.793971E-03                                                                                                                                                                                                                                                                                                                                                                                                                                                                                              
  7.800000E+02  1.250000E+02 -4.725000E+03  5.880464E-09  6.220050E-10 -2.502025E-10  5.842120E-09  3.222111E-11  3.486138E-12 -1.401598E-12  3.200128E-11  0.000000E+00  0.000000E+00  0.000000E+00  0.000000E+00  0.000000E+00  0.000000E+00  0.000000E+00  0.000000E+00  5.687841E-03  5.835034E-04 -2.340879E-04  5.652987E-03                                                                                                                                                                                                                                                                                                                                                                                                                                                                                              
  8.000000E+02  1.250000E+02 -4.725000E+03  8.320782E-09  6.792818E-10 -2.531241E-10  8.289145E-09  4.546946E-11  3.808595E-12 -1.418480E-12  4.528746E-11  0.000000E+00  0.000000E+00  0.000000E+00  0.000000E+00  0.000000E+00  0.000000E+00  0.000000E+00  0.000000E+00  8.039251E-03  6.380076E-04 -2.369013E-04  8.010392E-03                                                                                                                                                                                                                                                                                                                                                                                                                                                                                              
  9.350000E+02  1.250000E+02 -4.725000E+03  9.030035E-09  7.220349E-10 -2.567079E-10  8.997461E-09  4.934933E-11  4.050183E-12 -1.439364E-12  4.916178E-11  0.000000E+00  0.000000E+00  0.000000E+00  0.000000E+00  0.000000E+00  0.000000E+00  0.000000E+00  0.000000E+00  8.729595E-03  6.794377E-04 -2.410296E-04  8.699776E-03                                                                                                                                                                                                                                                                                                                                                                                                                                                                                              
  1.185000E+03  1.250000E+02 -4.725000E+03  1.028827E-08  6.713265E-10 -2.546673E-10  1.026319E-08  5.622371E-11  3.767314E-12 -1.428783E-12  5.607915E-11  0.000000E+00  0.000000E+00  0.000000E+00  0.000000E+00  0.000000E+00  0.000000E+00  0.000000E+00  0.000000E+00  9.955723E-03  6.326992E-04 -2.397175E-04  9.932706E-03                                                                                                                                                                                                                                                                                                                                                                                                                                                                                              