Title="TOUGHREACT V3.30-OMP flowvector.tec: Liq & Gas Fluxes (kg/s/m^2), Pore Velocities (m/s), & Heat Fluxes (J/s/m2)"                                                                                                                                                                                                                                                                                                                                                                                                                                                                                                                                                                                                                                                                                                         
Variables= "X(m)"     "Y(m)"      "Z(m)"     "FluxLiq"   "FluxLiq_X"   "FluxLiq_Y"   "FluxLiq_Z"   "PorVelLiq"  "PorVelLiqX"  "PorVelLiqY"  "PorVelLiqZ"     "FluxGas"   "FluxGas_X"   "FluxGas_Y"   "FluxGas_Z"   "PorVelGas"  "PorVelGasX"  "PorVelGasY"  "PorVelGasZ"    "HeatFlux"  "HeatFlux_X"  "HeatFlux_Y"  "HeatFlux_Z"                                                                                                                                                                                                                                                                                                                                                                                                                                                                                                
Zone T= "2.66000000E+10 sec" I=     9 J=    10 K=    23 F=Point
  1.250000E+02  1.250000E+02 -5.425000E+03  3.617863E-09  3.898178E-11 -1.705381E-10  3.613631E-09  2.105093E-11  2.288527E-13 -1.001188E-12  2.102587E-11  0.000000E+00  0.000000E+00  0.000000E+00  0.000000E+00  0.000000E+00  0.000000E+00  0.000000E+00  0.000000E+00  3.999653E-03  4.309549E-05 -1.885350E-04  3.994975E-03                                                                                                                                                                                                                                                                                                                                                                                                                                                                                              
  3.750000E+02  1.250000E+02 -5.425000E+03  3.537979E-09  2.970330E-10 -1.951724E-10  3.520082E-09  2.058756E-11  1.743811E-12 -1.145811E-12  2.048155E-11  0.000000E+00  0.000000E+00  0.000000E+00  0.000000E+00  0.000000E+00  0.000000E+00  0.000000E+00  0.000000E+00  3.911345E-03  3.283791E-04 -2.157696E-04  3.891559E-03                                                                                                                                                                                                                                                                                                                                                                                                                                                                                              
  6.250000E+02  1.250000E+02 -5.425000E+03  3.573124E-09  9.033055E-10 -2.451002E-10  3.448359E-09  2.080308E-11  5.303099E-12 -1.438927E-12  2.006427E-11  0.000000E+00  0.000000E+00  0.000000E+00  0.000000E+00  0.000000E+00  0.000000E+00  0.000000E+00  0.000000E+00  3.950208E-03  9.986338E-04 -2.709674E-04  3.812276E-03                                                                                                                                                                                                                                                                                                                                                                                                                                                                                              
  7.600000E+02  1.250000E+02 -5.425000E+03  3.773980E-09  1.314302E-09 -2.862165E-10  3.526133E-09  2.198407E-11  7.715973E-12 -1.680312E-12  2.051682E-11  0.000000E+00  0.000000E+00  0.000000E+00  0.000000E+00  0.000000E+00  0.000000E+00  0.000000E+00  0.000000E+00  4.172258E-03  1.453005E-03 -3.164225E-04  3.898255E-03                                                                                                                                                                                                                                                                                                                                                                                                                                                                                              
  7.800000E+02  1.250000E+02 -5.425000E+03  3.802755E-09  1.360675E-09 -2.924105E-10  3.538927E-09  2.215308E-11  7.988219E-12 -1.716676E-12  2.059126E-11  0.000000E+00  0.000000E+00  0.000000E+00  0.000000E+00  0.000000E+00  0.000000E+00  0.000000E+00  0.000000E+00  4.204070E-03  1.504271E-03 -3.232702E-04  3.912400E-03                                                                                                                                                                                                                                                                                                                                                                                                                                                                                              
  8.000000E+02  1.250000E+02 -5.425000E+03  3.832182E-09  1.404429E-09 -2.986985E-10  3.553024E-09  2.232580E-11  8.245091E-12 -1.753592E-12  2.067329E-11  0.000000E+00  0.000000E+00  0.000000E+00  0.000000E+00  0.000000E+00  0.000000E+00  0.000000E+00  0.000000E+00  4.236602E-03  1.552642E-03 -3.302217E-04  3.927983E-03                                                                                                                                                                                                                                                                                                                                                                                                                                                                                              
  9.350000E+02  1.250000E+02 -5.425000E+03  3.989455E-09  1.562135E-09 -3.416910E-10  3.654959E-09  2.324632E-11  9.170955E-12 -2.005992E-12  2.126643E-11  0.000000E+00  0.000000E+00  0.000000E+00  0.000000E+00  0.000000E+00  0.000000E+00  0.000000E+00  0.000000E+00  4.410468E-03  1.726991E-03 -3.777508E-04  4.040673E-03                                                                                                                                                                                                                                                                                                                                                                                                                                                                                              
  1.185000E+03  1.250000E+02 -5.425000E+03  4.210907E-09  1.458542E-09 -4.221924E-10  3.927613E-09  2.453003E-11  8.562795E-12 -2.478603E-12  2.285295E-11  0.000000E+00  0.000000E+00  0.000000E+00  0.000000E+00  0.000000E+00  0.000000E+00  0.000000E+00  0.000000E+00  4.655286E-03  1.612464E-03 -4.667467E-04  4.342096E-03                                                                                                                                                                                                                                                                                                                                                                                                                                                                                              
  1.435000E+03  1.250000E+02 -5.425000E+03  4.244513E-09  6.092092E-10 -4.667078E-10  4.174558E-09  2.470421E-11  3.576544E-12 -2.739948E-12  2.428990E-11  0.000000E+00  0.000000E+00  0.000000E+00  0.000000E+00  0.000000E+00  0.000000E+00  0.000000E+00  0.000000E+00  4.692441E-03  6.734994E-04 -5.159596E-04  4.615105E-03                                                                                                                                                                                                                                                                                                                                                                                                                                                                                              
  1.250000E+02  1.250000E+02 -5.225000E+03  7.363792E-09 -3.461552E-11 -2.052968E-10  7.360848E-09  4.250454E-11 -1.994866E-13 -1.183109E-12  4.248760E-11  0.000000E+00  0.000000E+00  0.000000E+00  0.000000E+00  0.000000E+00  0.000000E+00  0.000000E+00  0.000000E+00  7.903388E-03 -3.607706E-05 -2.139647E-04  7.900409E-03                                                                                                                                                                                                                                                                                                                                                                                                                                                                                              
  3.750000E+02  1.250000E+02 -5.225000E+03  6.954340E-09  1.579544E-10 -2.425764E-10  6.948313E-09  4.015094E-11  9.102795E-13 -1.397949E-12  4.011627E-11  0.000000E+00  0.000000E+00  0.000000E+00  0.000000E+00  0.000000E+00  0.000000E+00  0.000000E+00  0.000000E+00  7.470632E-03  1.646235E-04 -2.528190E-04  7.464538E-03                                                                                                                                                                                                                                                                                                                                                                                                                                                                                              
  6.250000E+02  1.250000E+02 -5.225000E+03  6.631539E-09  9.281300E-10 -3.139796E-10  6.558758E-09  3.829715E-11  5.348751E-12 -1.809444E-12  3.787860E-11  0.000000E+00  0.000000E+00  0.000000E+00  0.000000E+00  0.000000E+00  0.000000E+00  0.000000E+00  0.000000E+00  7.127546E-03  9.673203E-04 -3.272399E-04  7.054014E-03                                                                                                                                                                                                                                                                                                                                                                                                                                                                                              
  7.600000E+02  1.250000E+02 -5.225000E+03  7.045363E-09  1.506489E-09 -3.721145E-10  6.872347E-09  4.067696E-11  8.681804E-12 -2.144473E-12  3.968177E-11  0.000000E+00  0.000000E+00  0.000000E+00  0.000000E+00  0.000000E+00  0.000000E+00  0.000000E+00  0.000000E+00  7.560768E-03  1.570103E-03 -3.878293E-04  7.385769E-03                                                                                                                                                                                                                                                                                                                                                                                                                                                                                              
  7.800000E+02  1.250000E+02 -5.225000E+03  7.114075E-09  1.575597E-09 -3.808774E-10  6.926939E-09  4.107206E-11  9.080074E-12 -2.194974E-12  3.999561E-11  0.000000E+00  0.000000E+00  0.000000E+00  0.000000E+00  0.000000E+00  0.000000E+00  0.000000E+00  0.000000E+00  7.632791E-03  1.642129E-03 -3.969621E-04  7.443476E-03                                                                                                                                                                                                                                                                                                                                                                                                                                                                                              
  8.000000E+02  1.250000E+02 -5.225000E+03  7.201019E-09  1.640112E-09 -3.897790E-10  7.000913E-09  4.157177E-11  9.451874E-12 -2.246273E-12  4.042065E-11  0.000000E+00  0.000000E+00  0.000000E+00  0.000000E+00  0.000000E+00  0.000000E+00  0.000000E+00  0.000000E+00  7.723951E-03  1.709369E-03 -4.062394E-04  7.521466E-03                                                                                                                                                                                                                                                                                                                                                                                                                                                                                              
  9.350000E+02  1.250000E+02 -5.225000E+03  7.697889E-09  1.864845E-09 -4.502128E-10  7.455009E-09  4.442837E-11  1.074702E-11 -2.594552E-12  4.303081E-11  0.000000E+00  0.000000E+00  0.000000E+00  0.000000E+00  0.000000E+00  0.000000E+00  0.000000E+00  0.000000E+00  8.247227E-03  1.943592E-03 -4.692242E-04  8.001189E-03                                                                                                                                                                                                                                                                                                                                                                                                                                                                                              
  1.185000E+03  1.250000E+02 -5.225000E+03  8.767761E-09  1.805068E-09 -5.654332E-10  8.561288E-09  5.058075E-11  1.040256E-11 -3.258575E-12  4.939211E-11  0.000000E+00  0.000000E+00  0.000000E+00  0.000000E+00  0.000000E+00  0.000000E+00  0.000000E+00  0.000000E+00  9.380970E-03  1.881298E-03 -5.893112E-04  9.171479E-03                                                                                                                                                                                                                                                                                                                                                                                                                                                                                              
  1.435000E+03  1.250000E+02 -5.225000E+03  9.679849E-09  7.756672E-10 -6.185367E-10  9.628874E-09  5.582313E-11  4.470167E-12 -3.564627E-12  5.552957E-11  0.000000E+00  0.000000E+00  0.000000E+00  0.000000E+00  0.000000E+00  0.000000E+00  0.000000E+00  0.000000E+00  1.035162E-02  8.084284E-04 -6.446623E-04  1.029985E-02                                                                                                                                                                                                                                                                                                                                                                                                                                                                                              
  1.250000E+02  1.250000E+02 -4.975000E+03  8.091667E-09 -3.330575E-10 -3.581799E-10  8.076872E-09  4.601315E-11 -1.893921E-12 -2.036781E-12  4.592901E-11  0.000000E+00  0.000000E+00  0.000000E+00  0.000000E+00  0.000000E+00  0.000000E+00  0.000000E+00  0.000000E+00  8.221771E-03 -3.309200E-04 -3.558841E-04  8.207397E-03                                                                                                                                                                                                                                                                                                                                                                                                                                                                                              
  3.750000E+02  1.250000E+02 -4.975000E+03  7.019252E-09 -4.444829E-10 -4.647794E-10  6.989729E-09  3.992390E-11 -2.527533E-12 -2.642937E-12  3.975606E-11  0.000000E+00  0.000000E+00  0.000000E+00  0.000000E+00  0.000000E+00  0.000000E+00  0.000000E+00  0.000000E+00  7.140268E-03 -4.416276E-04 -4.617914E-04  7.111620E-03                                                                                                                                                                                                                                                                                                                                                                                                                                                                                              
  6.250000E+02  1.250000E+02 -4.975000E+03  5.636088E-09  1.025223E-09 -6.441427E-10  5.504497E-09  3.208202E-11  5.829834E-12 -3.662846E-12  3.133453E-11  0.000000E+00  0.000000E+00  0.000000E+00  0.000000E+00  0.000000E+00  0.000000E+00  0.000000E+00  0.000000E+00  5.747712E-03  1.018618E-03 -6.399864E-04  5.620412E-03                                                                                                                                                                                                                                                                                                                                                                                                                                                                                              
  7.600000E+02  1.250000E+02 -4.975000E+03  6.379569E-09  2.393601E-09 -7.859755E-10  5.861042E-09  3.631214E-11  1.361101E-11 -4.469366E-12  3.336670E-11  0.000000E+00  0.000000E+00  0.000000E+00  0.000000E+00  0.000000E+00  0.000000E+00  0.000000E+00  0.000000E+00  6.488407E-03  2.378181E-03 -7.808988E-04  5.986140E-03                                                                                                                                                                                                                                                                                                                                                                                                                                                                                              
  7.800000E+02  1.250000E+02 -4.975000E+03  6.522195E-09  2.638812E-09 -8.084926E-10  5.909488E-09  3.712387E-11  1.500542E-11 -4.597409E-12  3.364347E-11  0.000000E+00  0.000000E+00  0.000000E+00  0.000000E+00  0.000000E+00  0.000000E+00  0.000000E+00  0.000000E+00  6.629942E-03  2.621811E-03 -8.032720E-04  6.036307E-03                                                                                                                                                                                                                                                                                                                                                                                                                                                                                              
  8.000000E+02  1.250000E+02 -4.975000E+03  7.561541E-09  2.815466E-09 -8.331481E-10  6.968208E-09  4.300680E-11  1.601002E-11 -4.737630E-12  3.963356E-11  0.000000E+00  0.000000E+00  0.000000E+00  0.000000E+00  0.000000E+00  0.000000E+00  0.000000E+00  0.000000E+00  7.667830E-03  2.797361E-03 -8.277709E-04  7.091205E-03                                                                                                                                                                                                                                                                                                                                                                                                                                                                                              
  9.350000E+02  1.250000E+02 -4.975000E+03  8.780746E-09  3.220306E-09 -9.779822E-10  8.110159E-09  4.992950E-11  1.831228E-11 -5.561258E-12  4.611603E-11  0.000000E+00  0.000000E+00  0.000000E+00  0.000000E+00  0.000000E+00  0.000000E+00  0.000000E+00  0.000000E+00  8.895460E-03  3.199656E-03 -9.716966E-04  8.243010E-03                                                                                                                                                                                                                                                                                                                                                                                                                                                                                              
  1.185000E+03  1.250000E+02 -4.975000E+03  1.125657E-08  3.311974E-09 -1.271792E-09  1.068287E-08  6.399019E-11  1.883378E-11 -7.232101E-12  6.072668E-11  0.000000E+00  0.000000E+00  0.000000E+00  0.000000E+00  0.000000E+00  0.000000E+00  0.000000E+00  0.000000E+00  1.139883E-02  3.290815E-03 -1.263653E-03  1.084006E-02                                                                                                                                                                                                                                                                                                                                                                                                                                                                                              
  1.435000E+03  1.250000E+02 -4.975000E+03  1.379620E-08  1.525275E-09 -1.333015E-09  1.364667E-08  7.840011E-11  8.673670E-12 -7.580376E-12  7.754923E-11  0.000000E+00  0.000000E+00  0.000000E+00  0.000000E+00  0.000000E+00  0.000000E+00  0.000000E+00  0.000000E+00  1.397105E-02  1.515564E-03 -1.324543E-03  1.382530E-02                                                                                                                                                                                                                                                                                                                                                                                                                                                                                              
  1.250000E+02  1.250000E+02 -4.725000E+03  9.298683E-09 -3.685103E-10 -3.607384E-10  9.284372E-09  5.076517E-11 -2.067233E-12 -2.023846E-12  5.068267E-11  0.000000E+00  0.000000E+00  0.000000E+00  0.000000E+00  0.000000E+00  0.000000E+00  0.000000E+00  0.000000E+00  8.987007E-03 -3.468296E-04 -3.397999E-04  8.973881E-03                                                                                                                                                                                                                                                                                                                                                                                                                                                                                              
  3.750000E+02  1.250000E+02 -4.725000E+03  7.120224E-09 -4.225119E-10 -3.927202E-10  7.096819E-09  3.895216E-11 -2.369973E-12 -2.201951E-12  3.881759E-11  0.000000E+00  0.000000E+00  0.000000E+00  0.000000E+00  0.000000E+00  0.000000E+00  0.000000E+00  0.000000E+00  6.887350E-03 -3.974921E-04 -3.688635E-04  6.865969E-03                                                                                                                                                                                                                                                                                                                                                                                                                                                                                              
  6.250000E+02  1.250000E+02 -4.725000E+03  3.980200E-09  1.359128E-09 -4.957317E-10  3.707966E-09  2.201196E-11  7.615999E-12 -2.776842E-12  2.046490E-11  0.000000E+00  0.000000E+00  0.000000E+00  0.000000E+00  0.000000E+00  0.000000E+00  0.000000E+00  0.000000E+00  3.857745E-03  1.275087E-03 -4.635314E-04  3.611300E-03                                                                                                                                                                                                                                                                                                                                                                                                                                                                                              
  7.600000E+02  1.250000E+02 -4.725000E+03  4.007924E-09  3.100942E-09 -8.973502E-10  2.375369E-09  2.254858E-11  1.737645E-11 -5.026586E-12  1.346220E-11  0.000000E+00  0.000000E+00  0.000000E+00  0.000000E+00  0.000000E+00  0.000000E+00  0.000000E+00  0.000000E+00  3.890134E-03  2.908954E-03 -8.392958E-04  2.442685E-03                                                                                                                                                                                                                                                                                                                                                                                                                                                                                              
  7.800000E+02  1.250000E+02 -4.725000E+03  4.406734E-09  3.667731E-09 -9.735551E-10  2.240369E-09  2.479517E-11  2.055568E-11 -5.453536E-12  1.274846E-11  0.000000E+00  0.000000E+00  0.000000E+00  0.000000E+00  0.000000E+00  0.000000E+00  0.000000E+00  0.000000E+00  4.288214E-03  3.440249E-03 -9.107653E-04  2.392483E-03                                                                                                                                                                                                                                                                                                                                                                                                                                                                                              
  8.000000E+02  1.250000E+02 -4.725000E+03  9.111125E-09  3.947987E-09 -1.067439E-09  8.141657E-09  4.992035E-11  2.213461E-11 -5.981603E-12  4.434322E-11  0.000000E+00  0.000000E+00  0.000000E+00  0.000000E+00  0.000000E+00  0.000000E+00  0.000000E+00  0.000000E+00  8.732443E-03  3.707529E-03 -9.989272E-04  7.842954E-03                                                                                                                                                                                                                                                                                                                                                                                                                                                                                              
  9.350000E+02  1.250000E+02 -4.725000E+03  1.071324E-08  4.545686E-09 -1.659211E-09  9.558096E-09  5.878422E-11  2.549788E-11 -9.302809E-12  5.214308E-11  0.000000E+00  0.000000E+00  0.000000E+00  0.000000E+00  0.000000E+00  0.000000E+00  0.000000E+00  0.000000E+00  1.028495E-02  4.277010E-03 -1.557654E-03  9.222861E-03                                                                                                                                                                                                                                                                                                                                                                                                                                                                                              
  1.185000E+03  1.250000E+02 -4.725000E+03  1.558529E-08  5.541017E-09 -2.717377E-09  1.431133E-08  8.536480E-11  3.109481E-11 -1.524484E-11  7.802472E-11  0.000000E+00  0.000000E+00  0.000000E+00  0.000000E+00  0.000000E+00  0.000000E+00  0.000000E+00  0.000000E+00  1.498025E-02  5.222346E-03 -2.557433E-03  1.380559E-02                                                                                                                                                                                                                                                                                                                                                                                                                                                                                              