Title="TOUGHREACT V3.30-OMP flowvector.tec: Liq & Gas Fluxes (kg/s/m^2), Pore Velocities (m/s), & Heat Fluxes (J/s/m2)"                                                                                                                                                                                                                                                                                                                                                                                                                                                                                                                                                                                                                                                                                                         
Variables= "X(m)"     "Y(m)"      "Z(m)"     "FluxLiq"   "FluxLiq_X"   "FluxLiq_Y"   "FluxLiq_Z"   "PorVelLiq"  "PorVelLiqX"  "PorVelLiqY"  "PorVelLiqZ"     "FluxGas"   "FluxGas_X"   "FluxGas_Y"   "FluxGas_Z"   "PorVelGas"  "PorVelGasX"  "PorVelGasY"  "PorVelGasZ"    "HeatFlux"  "HeatFlux_X"  "HeatFlux_Y"  "HeatFlux_Z"                                                                                                                                                                                                                                                                                                                                                                                                                                                                                                
Zone T= "1.33000000E+10 sec" I=     9 J=    10 K=    23 F=Point
  1.250000E+02  1.250000E+02 -5.425000E+03  2.805845E-09  2.343786E-10 -3.961886E-10  2.767828E-09  1.630454E-11  1.371308E-12 -2.318027E-12  1.608056E-11  0.000000E+00  0.000000E+00  0.000000E+00  0.000000E+00  0.000000E+00  0.000000E+00  0.000000E+00  0.000000E+00  3.067730E-03  2.562544E-04 -4.331673E-04  3.026164E-03                                                                                                                                                                                                                                                                                                                                                                                                                                                                                              
  3.750000E+02  1.250000E+02 -5.425000E+03  2.823428E-09  9.955122E-10 -4.228236E-10  2.608049E-09  1.642065E-11  5.824575E-12 -2.473868E-12  1.515229E-11  0.000000E+00  0.000000E+00  0.000000E+00  0.000000E+00  0.000000E+00  0.000000E+00  0.000000E+00  0.000000E+00  3.086959E-03  1.088430E-03 -4.622897E-04  2.851477E-03                                                                                                                                                                                                                                                                                                                                                                                                                                                                                              
  6.250000E+02  1.250000E+02 -5.425000E+03  3.428069E-09  2.243723E-09 -5.085273E-10  2.541410E-09  1.997996E-11  1.312768E-11 -2.975314E-12  1.476518E-11  0.000000E+00  0.000000E+00  0.000000E+00  0.000000E+00  0.000000E+00  0.000000E+00  0.000000E+00  0.000000E+00  3.748043E-03  2.453149E-03 -5.559949E-04  2.778624E-03                                                                                                                                                                                                                                                                                                                                                                                                                                                                                              
  7.600000E+02  1.250000E+02 -5.425000E+03  4.081581E-09  3.010107E-09 -5.996595E-10  2.690532E-09  2.380816E-11  1.761170E-11 -3.508520E-12  1.563159E-11  0.000000E+00  0.000000E+00  0.000000E+00  0.000000E+00  0.000000E+00  0.000000E+00  0.000000E+00  0.000000E+00  4.462551E-03  3.291068E-03 -6.556327E-04  2.941662E-03                                                                                                                                                                                                                                                                                                                                                                                                                                                                                              
  7.800000E+02  1.250000E+02 -5.425000E+03  4.164527E-09  3.097804E-09 -6.135738E-10  2.714852E-09  2.429364E-11  1.812482E-11 -3.589932E-12  1.577289E-11  0.000000E+00  0.000000E+00  0.000000E+00  0.000000E+00  0.000000E+00  0.000000E+00  0.000000E+00  0.000000E+00  4.553237E-03  3.386948E-03 -6.708457E-04  2.968251E-03                                                                                                                                                                                                                                                                                                                                                                                                                                                                                              
  8.000000E+02  1.250000E+02 -5.425000E+03  4.245938E-09  3.180920E-09 -6.278810E-10  2.741443E-09  2.476997E-11  1.861113E-11 -3.673642E-12  1.592738E-11  0.000000E+00  0.000000E+00  0.000000E+00  0.000000E+00  0.000000E+00  0.000000E+00  0.000000E+00  0.000000E+00  4.642247E-03  3.477821E-03 -6.864882E-04  2.997324E-03                                                                                                                                                                                                                                                                                                                                                                                                                                                                                              
  9.350000E+02  1.250000E+02 -5.425000E+03  4.625055E-09  3.500211E-09 -7.269529E-10  2.934484E-09  2.698442E-11  2.047929E-11 -4.253305E-12  1.704896E-11  0.000000E+00  0.000000E+00  0.000000E+00  0.000000E+00  0.000000E+00  0.000000E+00  0.000000E+00  0.000000E+00  5.056745E-03  3.826912E-03 -7.948061E-04  3.208380E-03                                                                                                                                                                                                                                                                                                                                                                                                                                                                                              
  1.185000E+03  1.250000E+02 -5.425000E+03  4.900789E-09  3.251055E-09 -9.421111E-10  3.544122E-09  2.856911E-11  1.902157E-11 -5.512191E-12  2.059100E-11  0.000000E+00  0.000000E+00  0.000000E+00  0.000000E+00  0.000000E+00  0.000000E+00  0.000000E+00  0.000000E+00  5.358209E-03  3.554497E-03 -1.030044E-03  3.874915E-03                                                                                                                                                                                                                                                                                                                                                                                                                                                                                              
  1.435000E+03  1.250000E+02 -5.425000E+03  4.475592E-09  1.361478E-09 -1.080359E-09  4.124333E-09  2.603063E-11  7.965883E-12 -6.321089E-12  2.396210E-11  0.000000E+00  0.000000E+00  0.000000E+00  0.000000E+00  0.000000E+00  0.000000E+00  0.000000E+00  0.000000E+00  4.893324E-03  1.488552E-03 -1.181195E-03  4.509281E-03                                                                                                                                                                                                                                                                                                                                                                                                                                                                                              
  1.250000E+02  1.250000E+02 -5.225000E+03  4.465517E-09  1.037202E-10 -4.891641E-10  4.437432E-09  2.580751E-11  5.979199E-13 -2.819898E-12  2.564602E-11  0.000000E+00  0.000000E+00  0.000000E+00  0.000000E+00  0.000000E+00  0.000000E+00  0.000000E+00  0.000000E+00  4.794517E-03  1.080903E-04 -5.097738E-04  4.766114E-03                                                                                                                                                                                                                                                                                                                                                                                                                                                                                              
  3.750000E+02  1.250000E+02 -5.225000E+03  3.777364E-09  7.912337E-10 -5.103397E-10  3.658139E-09  2.185321E-11  4.561259E-12 -2.941973E-12  2.116843E-11  0.000000E+00  0.000000E+00  0.000000E+00  0.000000E+00  0.000000E+00  0.000000E+00  0.000000E+00  0.000000E+00  4.065981E-03  8.245711E-04 -5.318438E-04  3.945811E-03                                                                                                                                                                                                                                                                                                                                                                                                                                                                                              
  6.250000E+02  1.250000E+02 -5.225000E+03  4.045476E-09  2.346549E-09 -6.132555E-10  3.237824E-09  2.339310E-11  1.352728E-11 -3.535269E-12  1.875504E-11  0.000000E+00  0.000000E+00  0.000000E+00  0.000000E+00  0.000000E+00  0.000000E+00  0.000000E+00  0.000000E+00  4.320793E-03  2.445425E-03 -6.391020E-04  3.504383E-03                                                                                                                                                                                                                                                                                                                                                                                                                                                                                              
  7.600000E+02  1.250000E+02 -5.225000E+03  5.151161E-09  3.383580E-09 -7.395829E-10  3.812986E-09  2.975551E-11  1.950555E-11 -4.263523E-12  2.206232E-11  0.000000E+00  0.000000E+00  0.000000E+00  0.000000E+00  0.000000E+00  0.000000E+00  0.000000E+00  0.000000E+00  5.470973E-03  3.526156E-03 -7.707514E-04  4.111413E-03                                                                                                                                                                                                                                                                                                                                                                                                                                                                                              
  7.800000E+02  1.250000E+02 -5.225000E+03  5.310516E-09  3.512241E-09 -7.590059E-10  3.910198E-09  3.067275E-11  2.024728E-11 -4.375493E-12  2.262123E-11  0.000000E+00  0.000000E+00  0.000000E+00  0.000000E+00  0.000000E+00  0.000000E+00  0.000000E+00  0.000000E+00  5.637421E-03  3.660236E-03 -7.909925E-04  4.213966E-03                                                                                                                                                                                                                                                                                                                                                                                                                                                                                              
  8.000000E+02  1.250000E+02 -5.225000E+03  5.482972E-09  3.634763E-09 -7.791148E-10  4.030442E-09  3.166528E-11  2.095360E-11 -4.491417E-12  2.331231E-11  0.000000E+00  0.000000E+00  0.000000E+00  0.000000E+00  0.000000E+00  0.000000E+00  0.000000E+00  0.000000E+00  5.817967E-03  3.787920E-03 -8.119484E-04  4.340638E-03                                                                                                                                                                                                                                                                                                                                                                                                                                                                                              
  9.350000E+02  1.250000E+02 -5.225000E+03  6.440689E-09  4.158974E-09 -9.188145E-10  4.831272E-09  3.717786E-11  2.397562E-11 -5.296764E-12  2.791607E-11  0.000000E+00  0.000000E+00  0.000000E+00  0.000000E+00  0.000000E+00  0.000000E+00  0.000000E+00  0.000000E+00  6.825502E-03  4.334218E-03 -9.575317E-04  5.185091E-03                                                                                                                                                                                                                                                                                                                                                                                                                                                                                              
  1.185000E+03  1.250000E+02 -5.225000E+03  8.520610E-09  4.084996E-09 -1.243219E-09  7.373467E-09  4.914031E-11  2.354927E-11 -7.166933E-12  4.253042E-11  0.000000E+00  0.000000E+00  0.000000E+00  0.000000E+00  0.000000E+00  0.000000E+00  0.000000E+00  0.000000E+00  9.037135E-03  4.257127E-03 -1.295604E-03  7.865627E-03                                                                                                                                                                                                                                                                                                                                                                                                                                                                                              
  1.435000E+03  1.250000E+02 -5.225000E+03  1.021806E-08  1.773088E-09 -1.438711E-09  9.959669E-09  5.888491E-11  1.022158E-11 -8.293962E-12  5.739479E-11  0.000000E+00  0.000000E+00  0.000000E+00  0.000000E+00  0.000000E+00  0.000000E+00  0.000000E+00  0.000000E+00  1.085460E-02  1.847805E-03 -1.499340E-03  1.059055E-02                                                                                                                                                                                                                                                                                                                                                                                                                                                                                              
  1.250000E+02  1.250000E+02 -4.975000E+03  3.460942E-09 -4.913509E-10 -9.281346E-10  3.297766E-09  1.969682E-11 -2.794910E-12 -5.279429E-12  1.876915E-11  0.000000E+00  0.000000E+00  0.000000E+00  0.000000E+00  0.000000E+00  0.000000E+00  0.000000E+00  0.000000E+00  3.515937E-03 -4.881587E-04 -9.221112E-04  3.357562E-03                                                                                                                                                                                                                                                                                                                                                                                                                                                                                              
  3.750000E+02  1.250000E+02 -4.975000E+03  1.167022E-09 -1.580374E-10 -9.059434E-10  7.184918E-10  6.673431E-12 -8.989616E-13 -5.153170E-12  4.143838E-12  0.000000E+00  0.000000E+00  0.000000E+00  0.000000E+00  0.000000E+00  0.000000E+00  0.000000E+00  0.000000E+00  1.202781E-03 -1.570107E-04 -9.000513E-04  7.822639E-04                                                                                                                                                                                                                                                                                                                                                                                                                                                                                              
  6.250000E+02  1.250000E+02 -4.975000E+03  3.100943E-09  2.712624E-09 -1.072588E-09 -1.052176E-09  1.760315E-11  1.542988E-11 -6.101043E-12 -5.879360E-12  0.000000E+00  0.000000E+00  0.000000E+00  0.000000E+00  0.000000E+00  0.000000E+00  0.000000E+00  0.000000E+00  3.038931E-03  2.694951E-03 -1.065594E-03 -9.147955E-04                                                                                                                                                                                                                                                                                                                                                                                                                                                                                              
  7.600000E+02  1.250000E+02 -4.975000E+03  5.131499E-09  4.943827E-09 -1.363448E-09 -1.785069E-10  2.918548E-11  2.812138E-11 -7.755514E-12 -9.120121E-13  0.000000E+00  0.000000E+00  0.000000E+00  0.000000E+00  0.000000E+00  0.000000E+00  0.000000E+00  0.000000E+00  5.095208E-03  4.911596E-03 -1.354547E-03 -5.076275E-05                                                                                                                                                                                                                                                                                                                                                                                                                                                                                              
  7.800000E+02  1.250000E+02 -4.975000E+03  5.502070E-09  5.318258E-09 -1.409810E-09 -3.662137E-11  3.129634E-11  3.025131E-11 -8.019233E-12 -1.049433E-13  0.000000E+00  0.000000E+00  0.000000E+00  0.000000E+00  0.000000E+00  0.000000E+00  0.000000E+00  0.000000E+00  5.466804E-03  5.283573E-03 -1.400607E-03  9.000208E-05                                                                                                                                                                                                                                                                                                                                                                                                                                                                                              
  8.000000E+02  1.250000E+02 -4.975000E+03  5.903820E-09  5.633700E-09 -1.459982E-09  9.924541E-10  3.359330E-11  3.204575E-11 -8.304655E-12  5.710739E-12  0.000000E+00  0.000000E+00  0.000000E+00  0.000000E+00  0.000000E+00  0.000000E+00  0.000000E+00  0.000000E+00  5.879083E-03  5.597020E-03 -1.450456E-03  1.064502E-03                                                                                                                                                                                                                                                                                                                                                                                                                                                                                              
  9.350000E+02  1.250000E+02 -4.975000E+03  7.769563E-09  6.983594E-09 -1.793458E-09  2.894655E-09  4.421072E-11  3.972460E-11 -1.020160E-11  1.650670E-11  0.000000E+00  0.000000E+00  0.000000E+00  0.000000E+00  0.000000E+00  0.000000E+00  0.000000E+00  0.000000E+00  7.753930E-03  6.938230E-03 -1.781792E-03  2.968099E-03                                                                                                                                                                                                                                                                                                                                                                                                                                                                                              
  1.185000E+03  1.250000E+02 -4.975000E+03  1.241557E-08  7.752169E-09 -2.681700E-09  9.319798E-09  7.059753E-11  4.409709E-11 -1.525438E-11  5.297887E-11  0.000000E+00  0.000000E+00  0.000000E+00  0.000000E+00  0.000000E+00  0.000000E+00  0.000000E+00  0.000000E+00  1.247554E-02  7.701939E-03 -2.664302E-03  9.445672E-03                                                                                                                                                                                                                                                                                                                                                                                                                                                                                              
  1.435000E+03  1.250000E+02 -4.975000E+03  1.760316E-08  3.648533E-09 -3.102632E-09  1.693910E-08  1.000021E-10  2.075438E-11 -1.764912E-11  9.621950E-11  0.000000E+00  0.000000E+00  0.000000E+00  0.000000E+00  0.000000E+00  0.000000E+00  0.000000E+00  0.000000E+00  1.776283E-02  3.624948E-03 -3.082606E-03  1.711360E-02                                                                                                                                                                                                                                                                                                                                                                                                                                                                                              
  1.250000E+02  1.250000E+02 -4.725000E+03  5.987163E-09 -1.693639E-09 -1.890640E-09  5.422471E-09  3.264464E-11 -9.503618E-12 -1.061013E-11  2.937309E-11  0.000000E+00  0.000000E+00  0.000000E+00  0.000000E+00  0.000000E+00  0.000000E+00  0.000000E+00  0.000000E+00  5.718377E-03 -1.593899E-03 -1.780752E-03  5.195021E-03                                                                                                                                                                                                                                                                                                                                                                                                                                                                                              
  3.750000E+02  1.250000E+02 -4.725000E+03  3.319108E-09 -1.667752E-09 -1.359313E-09 -2.527320E-09  1.814476E-11 -9.358449E-12 -7.623895E-12 -1.354725E-11  0.000000E+00  0.000000E+00  0.000000E+00  0.000000E+00  0.000000E+00  0.000000E+00  0.000000E+00  0.000000E+00  2.378964E-03 -1.569537E-03 -1.276764E-03 -1.251359E-03                                                                                                                                                                                                                                                                                                                                                                                                                                                                                              
  6.250000E+02  1.250000E+02 -4.725000E+03  7.865954E-09  3.193989E-09 -1.181761E-09 -7.090494E-09  4.272827E-11  1.790428E-11 -6.621850E-12 -3.822686E-11  0.000000E+00  0.000000E+00  0.000000E+00  0.000000E+00  0.000000E+00  0.000000E+00  0.000000E+00  0.000000E+00  4.993031E-03  2.996726E-03 -1.105138E-03 -3.837795E-03                                                                                                                                                                                                                                                                                                                                                                                                                                                                                              
  7.600000E+02  1.250000E+02 -4.725000E+03  1.083612E-08  6.805009E-09 -1.967471E-09 -8.200146E-09  5.924256E-11  3.814596E-11 -1.102487E-11 -4.396611E-11  0.000000E+00  0.000000E+00  0.000000E+00  0.000000E+00  0.000000E+00  0.000000E+00  0.000000E+00  0.000000E+00  7.784518E-03  6.384375E-03 -1.840497E-03 -4.055988E-03                                                                                                                                                                                                                                                                                                                                                                                                                                                                                              
  7.800000E+02  1.250000E+02 -4.725000E+03  1.169669E-08  7.785418E-09 -2.109889E-09 -8.470433E-09  6.406181E-11  4.364807E-11 -1.182314E-11 -4.537592E-11  0.000000E+00  0.000000E+00  0.000000E+00  0.000000E+00  0.000000E+00  0.000000E+00  0.000000E+00  0.000000E+00  8.618207E-03  7.303742E-03 -1.974152E-03 -4.126933E-03                                                                                                                                                                                                                                                                                                                                                                                                                                                                                              
  8.000000E+02  1.250000E+02 -4.725000E+03  8.957615E-09  8.461365E-09 -2.280658E-09 -1.855468E-09  5.014818E-11  4.745434E-11 -1.278431E-11 -9.974317E-12  0.000000E+00  0.000000E+00  0.000000E+00  0.000000E+00  0.000000E+00  0.000000E+00  0.000000E+00  0.000000E+00  8.285950E-03  7.946674E-03 -2.134648E-03 -9.749885E-04                                                                                                                                                                                                                                                                                                                                                                                                                                                                                              
  9.350000E+02  1.250000E+02 -4.725000E+03  1.230910E-08  1.178837E-08 -3.440680E-09  8.427156E-10  6.907079E-11  6.614553E-11 -1.929729E-11  4.812125E-12  0.000000E+00  0.000000E+00  0.000000E+00  0.000000E+00  0.000000E+00  0.000000E+00  0.000000E+00  0.000000E+00  1.158899E-02  1.109161E-02 -3.230506E-03  9.191107E-04                                                                                                                                                                                                                                                                                                                                                                                                                                                                                              
  1.185000E+03  1.250000E+02 -4.725000E+03  2.283737E-08  1.585157E-08 -6.471676E-09  1.511260E-08  1.266719E-10  8.898160E-11 -3.631872E-11  8.251671E-11  0.000000E+00  0.000000E+00  0.000000E+00  0.000000E+00  0.000000E+00  0.000000E+00  0.000000E+00  0.000000E+00  2.171239E-02  1.493812E-02 -6.091346E-03  1.453190E-02                                                                                                                                                                                                                                                                                                                                                                                                                                                                                              