Title="TOUGHREACT V3.30-OMP flowvector.tec: Liq & Gas Fluxes (kg/s/m^2), Pore Velocities (m/s), & Heat Fluxes (J/s/m2)"                                                                                                                                                                                                                                                                                                                                                                                                                                                                                                                                                                                                                                                                                                         
Variables= "X(m)"     "Y(m)"      "Z(m)"     "FluxLiq"   "FluxLiq_X"   "FluxLiq_Y"   "FluxLiq_Z"   "PorVelLiq"  "PorVelLiqX"  "PorVelLiqY"  "PorVelLiqZ"     "FluxGas"   "FluxGas_X"   "FluxGas_Y"   "FluxGas_Z"   "PorVelGas"  "PorVelGasX"  "PorVelGasY"  "PorVelGasZ"    "HeatFlux"  "HeatFlux_X"  "HeatFlux_Y"  "HeatFlux_Z"                                                                                                                                                                                                                                                                                                                                                                                                                                                                                                
Zone T= "8.00000000E+10 sec" I=     9 J=    10 K=    23 F=Point
  1.250000E+02  1.250000E+02 -5.425000E+03  3.900703E-09 -8.476099E-11 -1.169824E-10  3.898027E-09  2.286894E-11 -5.054033E-13 -6.975293E-13  2.285272E-11  0.000000E+00  0.000000E+00  0.000000E+00  0.000000E+00  0.000000E+00  0.000000E+00  0.000000E+00  0.000000E+00  4.503969E-03 -9.786993E-05 -1.350745E-04  4.500879E-03                                                                                                                                                                                                                                                                                                                                                                                                                                                                                              
  3.750000E+02  1.250000E+02 -5.425000E+03  3.814236E-09 -9.864207E-11 -1.272620E-10  3.810836E-09  2.236215E-11 -5.881719E-13 -7.588238E-13  2.234153E-11  0.000000E+00  0.000000E+00  0.000000E+00  0.000000E+00  0.000000E+00  0.000000E+00  0.000000E+00  0.000000E+00  4.404137E-03 -1.138979E-04 -1.469443E-04  4.400211E-03                                                                                                                                                                                                                                                                                                                                                                                                                                                                                              
  6.250000E+02  1.250000E+02 -5.425000E+03  3.727711E-09  2.084033E-10 -1.399699E-10  3.719248E-09  2.185590E-11  1.242645E-12 -8.345977E-13  2.180458E-11  0.000000E+00  0.000000E+00  0.000000E+00  0.000000E+00  0.000000E+00  0.000000E+00  0.000000E+00  0.000000E+00  4.304240E-03  2.406350E-04 -1.616181E-04  4.294468E-03                                                                                                                                                                                                                                                                                                                                                                                                                                                                                              
  7.600000E+02  1.250000E+02 -5.425000E+03  3.783020E-09  4.594084E-10 -1.442968E-10  3.752248E-09  2.218466E-11  2.739312E-12 -8.603978E-13  2.199807E-11  0.000000E+00  0.000000E+00  0.000000E+00  0.000000E+00  0.000000E+00  0.000000E+00  0.000000E+00  0.000000E+00  4.368101E-03  5.304605E-04 -1.666141E-04  4.332569E-03                                                                                                                                                                                                                                                                                                                                                                                                                                                                                              
  7.800000E+02  1.250000E+02 -5.425000E+03  3.792361E-09  4.883753E-10 -1.449041E-10  3.757991E-09  2.224014E-11  2.912033E-12 -8.640194E-13  2.203174E-11  0.000000E+00  0.000000E+00  0.000000E+00  0.000000E+00  0.000000E+00  0.000000E+00  0.000000E+00  0.000000E+00  4.378886E-03  5.639073E-04 -1.673154E-04  4.339200E-03                                                                                                                                                                                                                                                                                                                                                                                                                                                                                              
  8.000000E+02  1.250000E+02 -5.425000E+03  3.802585E-09  5.157928E-10 -1.454772E-10  3.764631E-09  2.230080E-11  3.075515E-12 -8.674362E-13  2.207067E-11  0.000000E+00  0.000000E+00  0.000000E+00  0.000000E+00  0.000000E+00  0.000000E+00  0.000000E+00  0.000000E+00  4.390690E-03  5.955651E-04 -1.679770E-04  4.346866E-03                                                                                                                                                                                                                                                                                                                                                                                                                                                                                              
  9.350000E+02  1.250000E+02 -5.425000E+03  3.865944E-09  6.174631E-10 -1.491099E-10  3.813401E-09  2.267518E-11  3.681745E-12 -8.890967E-13  2.235661E-11  0.000000E+00  0.000000E+00  0.000000E+00  0.000000E+00  0.000000E+00  0.000000E+00  0.000000E+00  0.000000E+00  4.463846E-03  7.129593E-04 -1.721713E-04  4.403177E-03                                                                                                                                                                                                                                                                                                                                                                                                                                                                                              
  1.185000E+03  1.250000E+02 -5.425000E+03  3.977735E-09  6.042332E-10 -1.511506E-10  3.928667E-09  2.332997E-11  3.602861E-12 -9.012657E-13  2.303246E-11  0.000000E+00  0.000000E+00  0.000000E+00  0.000000E+00  0.000000E+00  0.000000E+00  0.000000E+00  0.000000E+00  4.592923E-03  6.976829E-04 -1.745273E-04  4.536267E-03                                                                                                                                                                                                                                                                                                                                                                                                                                                                                              
  1.435000E+03  1.250000E+02 -5.425000E+03  4.025488E-09  2.513116E-10 -1.454168E-10  4.015003E-09  2.360229E-11  1.498496E-12 -8.670772E-13  2.353871E-11  0.000000E+00  0.000000E+00  0.000000E+00  0.000000E+00  0.000000E+00  0.000000E+00  0.000000E+00  0.000000E+00  4.648065E-03  2.901789E-04 -1.679066E-04  4.635959E-03                                                                                                                                                                                                                                                                                                                                                                                                                                                                                              
  1.250000E+02  1.250000E+02 -5.225000E+03  8.136463E-09 -1.440255E-10 -1.415105E-10  8.133957E-09  4.712920E-11 -8.300656E-13 -8.155707E-13  4.711483E-11  0.000000E+00  0.000000E+00  0.000000E+00  0.000000E+00  0.000000E+00  0.000000E+00  0.000000E+00  0.000000E+00  8.919168E-03 -1.501406E-04 -1.475190E-04  8.916684E-03                                                                                                                                                                                                                                                                                                                                                                                                                                                                                              
  3.750000E+02  1.250000E+02 -5.225000E+03  7.779883E-09 -2.259465E-10 -1.637864E-10  7.774876E-09  4.507491E-11 -1.302202E-12 -9.439522E-13  4.504620E-11  0.000000E+00  0.000000E+00  0.000000E+00  0.000000E+00  0.000000E+00  0.000000E+00  0.000000E+00  0.000000E+00  8.537515E-03 -2.355397E-04 -1.707402E-04  8.532557E-03                                                                                                                                                                                                                                                                                                                                                                                                                                                                                              
  6.250000E+02  1.250000E+02 -5.225000E+03  7.346745E-09  1.725665E-10 -1.895429E-10  7.342272E-09  4.258155E-11  9.945556E-13 -1.092395E-12  4.255591E-11  0.000000E+00  0.000000E+00  0.000000E+00  0.000000E+00  0.000000E+00  0.000000E+00  0.000000E+00  0.000000E+00  8.075735E-03  1.798931E-04 -1.975907E-04  8.071313E-03                                                                                                                                                                                                                                                                                                                                                                                                                                                                                              
  7.600000E+02  1.250000E+02 -5.225000E+03  7.496694E-09  5.308890E-10 -1.938421E-10  7.475360E-09  4.344498E-11  3.059683E-12 -1.117174E-12  4.332270E-11  0.000000E+00  0.000000E+00  0.000000E+00  0.000000E+00  0.000000E+00  0.000000E+00  0.000000E+00  0.000000E+00  8.234868E-03  5.534296E-04 -2.020725E-04  8.213765E-03                                                                                                                                                                                                                                                                                                                                                                                                                                                                                              
  7.800000E+02  1.250000E+02 -5.225000E+03  7.525516E-09  5.736229E-10 -1.943716E-10  7.501105E-09  4.361086E-11  3.305974E-12 -1.120226E-12  4.347094E-11  0.000000E+00  0.000000E+00  0.000000E+00  0.000000E+00  0.000000E+00  0.000000E+00  0.000000E+00  0.000000E+00  8.265399E-03  5.979791E-04 -2.026245E-04  8.241249E-03                                                                                                                                                                                                                                                                                                                                                                                                                                                                                              
  8.000000E+02  1.250000E+02 -5.225000E+03  7.571600E-09  6.129138E-10 -1.947984E-10  7.544238E-09  4.387581E-11  3.532422E-12 -1.122686E-12  4.371897E-11  0.000000E+00  0.000000E+00  0.000000E+00  0.000000E+00  0.000000E+00  0.000000E+00  0.000000E+00  0.000000E+00  8.314036E-03  6.389387E-04 -2.030695E-04  8.286960E-03                                                                                                                                                                                                                                                                                                                                                                                                                                                                                              
  9.350000E+02  1.250000E+02 -5.225000E+03  7.812654E-09  7.302758E-10 -1.965314E-10  7.775966E-09  4.526327E-11  4.208829E-12 -1.132675E-12  4.505293E-11  0.000000E+00  0.000000E+00  0.000000E+00  0.000000E+00  0.000000E+00  0.000000E+00  0.000000E+00  0.000000E+00  8.570352E-03  7.612861E-04 -2.048762E-04  8.534015E-03                                                                                                                                                                                                                                                                                                                                                                                                                                                                                              
  1.185000E+03  1.250000E+02 -5.225000E+03  8.254202E-09  7.104902E-10 -1.926983E-10  8.221309E-09  4.780828E-11  4.094816E-12 -1.110589E-12  4.761965E-11  0.000000E+00  0.000000E+00  0.000000E+00  0.000000E+00  0.000000E+00  0.000000E+00  0.000000E+00  0.000000E+00  9.043893E-03  7.406669E-04 -2.008823E-04  9.011274E-03                                                                                                                                                                                                                                                                                                                                                                                                                                                                                              
  1.435000E+03  1.250000E+02 -5.225000E+03  8.558834E-09  2.959068E-10 -1.726456E-10  8.551974E-09  4.956500E-11  1.705426E-12 -9.950242E-13  4.952565E-11  0.000000E+00  0.000000E+00  0.000000E+00  0.000000E+00  0.000000E+00  0.000000E+00  0.000000E+00  0.000000E+00  9.372565E-03  3.084779E-04 -1.799807E-04  9.365758E-03                                                                                                                                                                                                                                                                                                                                                                                                                                                                                              
  1.250000E+02  1.250000E+02 -4.975000E+03  9.159480E-09 -3.876719E-10 -2.561924E-10  9.147685E-09  5.208718E-11 -2.204571E-12 -1.456890E-12  5.202011E-11  0.000000E+00  0.000000E+00  0.000000E+00  0.000000E+00  0.000000E+00  0.000000E+00  0.000000E+00  0.000000E+00  9.308305E-03 -3.852356E-04 -2.545857E-04  9.296845E-03                                                                                                                                                                                                                                                                                                                                                                                                                                                                                              
  3.750000E+02  1.250000E+02 -4.975000E+03  8.359745E-09 -7.814649E-10 -3.506873E-10  8.315748E-09  4.754163E-11 -4.443927E-12 -1.994235E-12  4.729145E-11  0.000000E+00  0.000000E+00  0.000000E+00  0.000000E+00  0.000000E+00  0.000000E+00  0.000000E+00  0.000000E+00  8.499431E-03 -7.765396E-04 -3.484770E-04  8.456706E-03                                                                                                                                                                                                                                                                                                                                                                                                                                                                                              
  6.250000E+02  1.250000E+02 -4.975000E+03  6.935650E-09  2.636273E-11 -4.588339E-10  6.920406E-09  3.945991E-11  1.499042E-13 -2.609195E-12  3.937327E-11  0.000000E+00  0.000000E+00  0.000000E+00  0.000000E+00  0.000000E+00  0.000000E+00  0.000000E+00  0.000000E+00  7.068154E-03  2.619609E-05 -4.559244E-04  7.053385E-03                                                                                                                                                                                                                                                                                                                                                                                                                                                                                              
  7.600000E+02  1.250000E+02 -4.975000E+03  6.947184E-09  9.257035E-10 -4.610924E-10  6.869777E-09  3.953491E-11  5.264115E-12 -2.622041E-12  3.909506E-11  0.000000E+00  0.000000E+00  0.000000E+00  0.000000E+00  0.000000E+00  0.000000E+00  0.000000E+00  0.000000E+00  7.082932E-03  9.198549E-04 -4.581674E-04  7.007986E-03                                                                                                                                                                                                                                                                                                                                                                                                                                                                                              
  7.800000E+02  1.250000E+02 -4.975000E+03  6.942766E-09  1.102194E-09 -4.617161E-10  6.839151E-09  3.951226E-11  6.267767E-12 -2.625588E-12  3.892351E-11  0.000000E+00  0.000000E+00  0.000000E+00  0.000000E+00  0.000000E+00  0.000000E+00  0.000000E+00  0.000000E+00  7.078838E-03  1.095234E-03 -4.587882E-04  6.978533E-03                                                                                                                                                                                                                                                                                                                                                                                                                                                                                              
  8.000000E+02  1.250000E+02 -4.975000E+03  7.915741E-09  1.212821E-09 -4.633552E-10  7.808541E-09  4.501800E-11  6.896891E-12 -2.634921E-12  4.440845E-11  0.000000E+00  0.000000E+00  0.000000E+00  0.000000E+00  0.000000E+00  0.000000E+00  0.000000E+00  0.000000E+00  8.047768E-03  1.205177E-03 -4.604189E-04  7.943685E-03                                                                                                                                                                                                                                                                                                                                                                                                                                                                                              
  9.350000E+02  1.250000E+02 -4.975000E+03  8.440483E-09  1.307789E-09 -4.461195E-10  8.326609E-09  4.800114E-11  7.437014E-12 -2.536930E-12  4.735361E-11  0.000000E+00  0.000000E+00  0.000000E+00  0.000000E+00  0.000000E+00  0.000000E+00  0.000000E+00  0.000000E+00  8.578127E-03  1.299576E-03 -4.433079E-04  8.467517E-03                                                                                                                                                                                                                                                                                                                                                                                                                                                                                              
  1.185000E+03  1.250000E+02 -4.975000E+03  9.313762E-09  1.184541E-09 -4.128423E-10  9.228899E-09  5.296852E-11  6.736227E-12 -2.347732E-12  5.248595E-11  0.000000E+00  0.000000E+00  0.000000E+00  0.000000E+00  0.000000E+00  0.000000E+00  0.000000E+00  0.000000E+00  9.463055E-03  1.177141E-03 -4.102575E-04  9.380588E-03                                                                                                                                                                                                                                                                                                                                                                                                                                                                                              
  1.435000E+03  1.250000E+02 -4.975000E+03  9.915507E-09  4.929260E-10 -2.988403E-10  9.898737E-09  5.639241E-11  2.803192E-12 -1.699462E-12  5.629705E-11  0.000000E+00  0.000000E+00  0.000000E+00  0.000000E+00  0.000000E+00  0.000000E+00  0.000000E+00  0.000000E+00  1.007485E-02  4.898627E-04 -2.969871E-04  1.005855E-02                                                                                                                                                                                                                                                                                                                                                                                                                                                                                              
  1.250000E+02  1.250000E+02 -4.725000E+03  1.021010E-08 -2.112554E-10 -1.374203E-10  1.020699E-08  5.578190E-11 -1.185135E-12 -7.710038E-13  5.576398E-11  0.000000E+00  0.000000E+00  0.000000E+00  0.000000E+00  0.000000E+00  0.000000E+00  0.000000E+00  0.000000E+00  9.877789E-03 -1.988591E-04 -1.294662E-04  9.874939E-03                                                                                                                                                                                                                                                                                                                                                                                                                                                                                              
  3.750000E+02  1.250000E+02 -4.725000E+03  8.925291E-09 -4.118658E-10 -1.879654E-10  8.913801E-09  4.877519E-11 -2.309826E-12 -1.053951E-12  4.870907E-11  0.000000E+00  0.000000E+00  0.000000E+00  0.000000E+00  0.000000E+00  0.000000E+00  0.000000E+00  0.000000E+00  8.629248E-03 -3.870891E-04 -1.765723E-04  8.618753E-03                                                                                                                                                                                                                                                                                                                                                                                                                                                                                              
  6.250000E+02  1.250000E+02 -4.725000E+03  6.428577E-09  3.875280E-11 -2.397973E-10  6.423986E-09  3.517362E-11  2.166714E-13 -1.343266E-12  3.514729E-11  0.000000E+00  0.000000E+00  0.000000E+00  0.000000E+00  0.000000E+00  0.000000E+00  0.000000E+00  0.000000E+00  6.214344E-03  3.636123E-05 -2.242413E-04  6.210190E-03                                                                                                                                                                                                                                                                                                                                                                                                                                                                                              
  7.600000E+02  1.250000E+02 -4.725000E+03  5.996685E-09  5.269693E-10 -2.492099E-10  5.968285E-09  3.284636E-11  2.953023E-12 -1.396011E-12  3.268354E-11  0.000000E+00  0.000000E+00  0.000000E+00  0.000000E+00  0.000000E+00  0.000000E+00  0.000000E+00  0.000000E+00  5.799680E-03  4.944058E-04 -2.331075E-04  5.773864E-03                                                                                                                                                                                                                                                                                                                                                                                                                                                                                              
  7.800000E+02  1.250000E+02 -4.725000E+03  5.860157E-09  6.272821E-10 -2.512975E-10  5.821066E-09  3.211085E-11  3.515699E-12 -1.407726E-12  3.188675E-11  0.000000E+00  0.000000E+00  0.000000E+00  0.000000E+00  0.000000E+00  0.000000E+00  0.000000E+00  0.000000E+00  5.668244E-03  5.884493E-04 -2.351111E-04  5.632711E-03                                                                                                                                                                                                                                                                                                                                                                                                                                                                                              
  8.000000E+02  1.250000E+02 -4.725000E+03  8.305958E-09  6.849236E-10 -2.543953E-10  8.273760E-09  4.538791E-11  3.840210E-12 -1.425598E-12  4.520268E-11  0.000000E+00  0.000000E+00  0.000000E+00  0.000000E+00  0.000000E+00  0.000000E+00  0.000000E+00  0.000000E+00  8.024741E-03  6.433011E-04 -2.380896E-04  7.995370E-03                                                                                                                                                                                                                                                                                                                                                                                                                                                                                              
  9.350000E+02  1.250000E+02 -4.725000E+03  9.015453E-09  7.284104E-10 -2.591180E-10  8.982242E-09  4.926922E-11  4.085926E-12 -1.452870E-12  4.907801E-11  0.000000E+00  0.000000E+00  0.000000E+00  0.000000E+00  0.000000E+00  0.000000E+00  0.000000E+00  0.000000E+00  8.715314E-03  6.854307E-04 -2.432905E-04  8.684912E-03                                                                                                                                                                                                                                                                                                                                                                                                                                                                                              
  1.185000E+03  1.250000E+02 -4.725000E+03  1.027918E-08  6.792267E-10 -2.593588E-10  1.025344E-08  5.617324E-11  3.811631E-12 -1.455097E-12  5.602488E-11  0.000000E+00  0.000000E+00  0.000000E+00  0.000000E+00  0.000000E+00  0.000000E+00  0.000000E+00  0.000000E+00  9.946667E-03  6.401399E-04 -2.441313E-04  9.923044E-03                                                                                                                                                                                                                                                                                                                                                                                                                                                                                              