Title="TOUGHREACT V3.30-OMP flowvector.tec: Liq & Gas Fluxes (kg/s/m^2), Pore Velocities (m/s), & Heat Fluxes (J/s/m2)"                                                                                                                                                                                                                                                                                                                                                                                                                                                                                                                                                                                                                                                                                                         
Variables= "X(m)"     "Y(m)"      "Z(m)"     "FluxLiq"   "FluxLiq_X"   "FluxLiq_Y"   "FluxLiq_Z"   "PorVelLiq"  "PorVelLiqX"  "PorVelLiqY"  "PorVelLiqZ"     "FluxGas"   "FluxGas_X"   "FluxGas_Y"   "FluxGas_Z"   "PorVelGas"  "PorVelGasX"  "PorVelGasY"  "PorVelGasZ"    "HeatFlux"  "HeatFlux_X"  "HeatFlux_Y"  "HeatFlux_Z"                                                                                                                                                                                                                                                                                                                                                                                                                                                                                                
Zone T= "3.00000000E+07 sec" I=     9 J=    10 K=    23 F=Point
  1.250000E+02  1.250000E+02 -5.425000E+03  2.292107E-07  9.187465E-12 -5.781349E-17  2.292107E-07  1.345338E-09  5.420278E-14 -3.410790E-19  1.345338E-09  0.000000E+00  0.000000E+00  0.000000E+00  0.000000E+00  0.000000E+00  0.000000E+00  0.000000E+00  0.000000E+00  2.474571E-01  9.918836E-06 -6.241575E-11  2.474571E-01                                                                                                                                                                                                                                                                                                                                                                                                                                                                                              
  3.750000E+02  1.250000E+02 -5.425000E+03  2.292414E-07  3.082976E-11 -2.782833E-17  2.292414E-07  1.345518E-09  1.818847E-13 -1.641773E-19  1.345518E-09  0.000000E+00  0.000000E+00  0.000000E+00  0.000000E+00  0.000000E+00  0.000000E+00  0.000000E+00  0.000000E+00  2.474902E-01  3.328398E-05 -3.004361E-11  2.474902E-01                                                                                                                                                                                                                                                                                                                                                                                                                                                                                              
  6.250000E+02  1.250000E+02 -5.425000E+03  2.293465E-07  3.760930E-12 -1.073153E-18  2.293465E-07  1.346135E-09  2.218815E-14 -6.331222E-21  1.346135E-09  0.000000E+00  0.000000E+00  0.000000E+00  0.000000E+00  0.000000E+00  0.000000E+00  0.000000E+00  0.000000E+00  2.476037E-01  4.060320E-06 -1.158582E-12  2.476037E-01                                                                                                                                                                                                                                                                                                                                                                                                                                                                                              
  7.600000E+02  1.250000E+02 -5.425000E+03  2.292990E-07 -3.698745E-11 -2.121055E-17  2.292989E-07  1.345856E-09 -2.182128E-13 -1.251347E-19  1.345856E-09  0.000000E+00  0.000000E+00  0.000000E+00  0.000000E+00  0.000000E+00  0.000000E+00  0.000000E+00  0.000000E+00  2.475524E-01 -3.993185E-05 -2.289903E-11  2.475524E-01                                                                                                                                                                                                                                                                                                                                                                                                                                                                                              
  7.800000E+02  1.250000E+02 -5.425000E+03  2.292916E-07 -3.915606E-11 -2.165244E-17  2.292916E-07  1.345813E-09 -2.310068E-13 -1.277417E-19  1.345813E-09  0.000000E+00  0.000000E+00  0.000000E+00  0.000000E+00  0.000000E+00  0.000000E+00  0.000000E+00  0.000000E+00  2.475444E-01 -4.227309E-05 -2.337609E-11  2.475444E-01                                                                                                                                                                                                                                                                                                                                                                                                                                                                                              
  8.000000E+02  1.250000E+02 -5.425000E+03  2.292841E-07 -4.077570E-11 -2.083179E-17  2.292841E-07  1.345769E-09 -2.405622E-13 -1.229002E-19  1.345769E-09  0.000000E+00  0.000000E+00  0.000000E+00  0.000000E+00  0.000000E+00  0.000000E+00  0.000000E+00  0.000000E+00  2.475363E-01 -4.402167E-05 -2.249012E-11  2.475363E-01                                                                                                                                                                                                                                                                                                                                                                                                                                                                                              
  9.350000E+02  1.250000E+02 -5.425000E+03  2.292328E-07 -2.866578E-11 -1.572906E-17  2.292328E-07  1.345468E-09 -1.691179E-13 -9.279584E-20  1.345468E-09  0.000000E+00  0.000000E+00  0.000000E+00  0.000000E+00  0.000000E+00  0.000000E+00  0.000000E+00  0.000000E+00  2.474810E-01 -3.094773E-05 -1.698117E-11  2.474810E-01                                                                                                                                                                                                                                                                                                                                                                                                                                                                                              
  1.185000E+03  1.250000E+02 -5.425000E+03  2.292083E-07 -9.767358E-12 -3.491956E-17  2.292083E-07  1.345324E-09 -5.762394E-14 -2.060130E-19  1.345324E-09  0.000000E+00  0.000000E+00  0.000000E+00  0.000000E+00  0.000000E+00  0.000000E+00  0.000000E+00  0.000000E+00  2.474545E-01 -1.054489E-05 -3.769934E-11  2.474545E-01                                                                                                                                                                                                                                                                                                                                                                                                                                                                                              
  1.435000E+03  1.250000E+02 -5.425000E+03  2.292041E-07 -1.827298E-12  4.921774E-17  2.292041E-07  1.345299E-09 -1.078041E-14  2.903672E-19  1.345299E-09  0.000000E+00  0.000000E+00  0.000000E+00  0.000000E+00  0.000000E+00  0.000000E+00  0.000000E+00  0.000000E+00  2.474500E-01 -1.972761E-06  5.313574E-11  2.474500E-01                                                                                                                                                                                                                                                                                                                                                                                                                                                                                              
  1.250000E+02  1.250000E+02 -5.225000E+03  5.615100E-07  3.295574E-11 -1.292054E-16  5.615099E-07  3.273152E-09  1.923701E-13 -7.542007E-19  3.273152E-09  0.000000E+00  0.000000E+00  0.000000E+00  0.000000E+00  0.000000E+00  0.000000E+00  0.000000E+00  0.000000E+00  5.932190E-01  3.429090E-05 -1.344399E-10  5.932190E-01                                                                                                                                                                                                                                                                                                                                                                                                                                                                                              
  3.750000E+02  1.250000E+02 -5.225000E+03  5.617258E-07  1.362455E-10 -5.957287E-17  5.617257E-07  3.274406E-09  7.952955E-13 -3.477402E-19  3.274406E-09  0.000000E+00  0.000000E+00  0.000000E+00  0.000000E+00  0.000000E+00  0.000000E+00  0.000000E+00  0.000000E+00  5.934448E-01  1.417653E-04 -6.198638E-11  5.934447E-01                                                                                                                                                                                                                                                                                                                                                                                                                                                                                              
  6.250000E+02  1.250000E+02 -5.225000E+03  5.627651E-07  1.703234E-11 -7.812226E-17  5.627651E-07  3.280443E-09  9.942159E-14 -4.560172E-19  3.280443E-09  0.000000E+00  0.000000E+00  0.000000E+00  0.000000E+00  0.000000E+00  0.000000E+00  0.000000E+00  0.000000E+00  5.945303E-01  1.772239E-05 -8.128728E-11  5.945303E-01                                                                                                                                                                                                                                                                                                                                                                                                                                                                                              
  7.600000E+02  1.250000E+02 -5.225000E+03  5.622770E-07 -1.766655E-10 -5.922171E-17  5.622770E-07  3.277608E-09 -1.031236E-12 -3.456904E-19  3.277608E-09  0.000000E+00  0.000000E+00  0.000000E+00  0.000000E+00  0.000000E+00  0.000000E+00  0.000000E+00  0.000000E+00  5.940206E-01 -1.838229E-04 -6.162100E-11  5.940206E-01                                                                                                                                                                                                                                                                                                                                                                                                                                                                                              
  7.800000E+02  1.250000E+02 -5.225000E+03  5.622039E-07 -1.834837E-10 -5.702181E-17  5.622039E-07  3.277184E-09 -1.071035E-12 -3.328491E-19  3.277183E-09  0.000000E+00  0.000000E+00  0.000000E+00  0.000000E+00  0.000000E+00  0.000000E+00  0.000000E+00  0.000000E+00  5.939442E-01 -1.909173E-04 -5.933197E-11  5.939442E-01                                                                                                                                                                                                                                                                                                                                                                                                                                                                                              
  8.000000E+02  1.250000E+02 -5.225000E+03  5.621317E-07 -1.875526E-10 -5.631949E-17  5.621317E-07  3.276764E-09 -1.094787E-12 -3.287495E-19  3.276764E-09  0.000000E+00  0.000000E+00  0.000000E+00  0.000000E+00  0.000000E+00  0.000000E+00  0.000000E+00  0.000000E+00  5.938688E-01 -1.951511E-04 -5.860120E-11  5.938688E-01                                                                                                                                                                                                                                                                                                                                                                                                                                                                                              
  9.350000E+02  1.250000E+02 -5.225000E+03  5.616593E-07 -1.213842E-10 -5.112442E-17  5.616593E-07  3.274020E-09 -7.085468E-13 -2.984247E-19  3.274020E-09  0.000000E+00  0.000000E+00  0.000000E+00  0.000000E+00  0.000000E+00  0.000000E+00  0.000000E+00  0.000000E+00  5.933753E-01 -1.263019E-04 -5.319566E-11  5.933753E-01                                                                                                                                                                                                                                                                                                                                                                                                                                                                                              
  1.185000E+03  1.250000E+02 -5.225000E+03  5.614971E-07 -3.194618E-11 -2.235015E-17  5.614971E-07  3.273077E-09 -1.864770E-13 -1.304628E-19  3.273077E-09  0.000000E+00  0.000000E+00  0.000000E+00  0.000000E+00  0.000000E+00  0.000000E+00  0.000000E+00  0.000000E+00  5.932055E-01 -3.324044E-05 -2.325564E-11  5.932055E-01                                                                                                                                                                                                                                                                                                                                                                                                                                                                                              
  1.435000E+03  1.250000E+02 -5.225000E+03  5.614747E-07 -5.039078E-12  6.362150E-18  5.614747E-07  3.272947E-09 -2.941423E-14  3.713730E-20  3.272947E-09  0.000000E+00  0.000000E+00  0.000000E+00  0.000000E+00  0.000000E+00  0.000000E+00  0.000000E+00  0.000000E+00  5.931821E-01 -5.243229E-06  6.619905E-12  5.931821E-01                                                                                                                                                                                                                                                                                                                                                                                                                                                                                              
  1.250000E+02  1.250000E+02 -4.975000E+03  3.275548E-07  2.111943E-10 -4.485694E-16  3.275548E-07  1.900638E-09  1.217591E-12 -2.586120E-18  1.900638E-09  0.000000E+00  0.000000E+00  0.000000E+00  0.000000E+00  0.000000E+00  0.000000E+00  0.000000E+00  0.000000E+00  3.412856E-01  2.094684E-04 -4.449037E-10  3.412855E-01                                                                                                                                                                                                                                                                                                                                                                                                                                                                                              
  3.750000E+02  1.250000E+02 -4.975000E+03  3.285442E-07  1.215734E-09 -1.744806E-16  3.285419E-07  1.906319E-09  7.009030E-12 -1.005927E-18  1.906306E-09  0.000000E+00  0.000000E+00  0.000000E+00  0.000000E+00  0.000000E+00  0.000000E+00  0.000000E+00  0.000000E+00  3.422370E-01  1.205799E-03 -1.730547E-10  3.422349E-01                                                                                                                                                                                                                                                                                                                                                                                                                                                                                              
  6.250000E+02  1.250000E+02 -4.975000E+03  3.383559E-07  1.311123E-10 -3.297502E-16  3.383559E-07  1.962604E-09  7.558945E-13 -1.901099E-18  1.962604E-09  0.000000E+00  0.000000E+00  0.000000E+00  0.000000E+00  0.000000E+00  0.000000E+00  0.000000E+00  0.000000E+00  3.518236E-01  1.300410E-04 -3.270553E-10  3.518236E-01                                                                                                                                                                                                                                                                                                                                                                                                                                                                                              
  7.600000E+02  1.250000E+02 -4.975000E+03  3.333180E-07 -1.757024E-09 -3.099250E-16  3.333134E-07  1.933701E-09 -1.012971E-11 -1.786801E-18  1.933674E-09  0.000000E+00  0.000000E+00  0.000000E+00  0.000000E+00  0.000000E+00  0.000000E+00  0.000000E+00  0.000000E+00  3.468052E-01 -1.742665E-03 -3.073922E-10  3.468008E-01                                                                                                                                                                                                                                                                                                                                                                                                                                                                                              
  7.800000E+02  1.250000E+02 -4.975000E+03  3.325394E-07 -1.756331E-09 -3.067651E-16  3.325347E-07  1.929235E-09 -1.012572E-11 -1.768583E-18  1.929208E-09  0.000000E+00  0.000000E+00  0.000000E+00  0.000000E+00  0.000000E+00  0.000000E+00  0.000000E+00  0.000000E+00  3.460479E-01 -1.741978E-03 -3.042581E-10  3.460435E-01                                                                                                                                                                                                                                                                                                                                                                                                                                                                                              
  8.000000E+02  1.250000E+02 -4.975000E+03  3.318469E-07 -1.719271E-09 -3.058493E-16  3.318424E-07  1.925264E-09 -9.912056E-12 -1.763303E-18  1.925238E-09  0.000000E+00  0.000000E+00  0.000000E+00  0.000000E+00  0.000000E+00  0.000000E+00  0.000000E+00  0.000000E+00  3.453883E-01 -1.705221E-03 -3.033498E-10  3.453841E-01                                                                                                                                                                                                                                                                                                                                                                                                                                                                                              
  9.350000E+02  1.250000E+02 -4.975000E+03  3.281755E-07 -1.005989E-09 -2.949605E-16  3.281739E-07  1.904202E-09 -5.799791E-12 -1.700525E-18  1.904194E-09  0.000000E+00  0.000000E+00  0.000000E+00  0.000000E+00  0.000000E+00  0.000000E+00  0.000000E+00  0.000000E+00  3.418835E-01 -9.977677E-04 -2.925501E-10  3.418820E-01                                                                                                                                                                                                                                                                                                                                                                                                                                                                                              
  1.185000E+03  1.250000E+02 -4.975000E+03  3.275214E-07 -1.819350E-10 -5.152500E-18  3.275214E-07  1.900446E-09 -1.048903E-12 -2.970551E-20  1.900446E-09  0.000000E+00  0.000000E+00  0.000000E+00  0.000000E+00  0.000000E+00  0.000000E+00  0.000000E+00  0.000000E+00  3.412531E-01 -1.804482E-04 -5.110393E-12  3.412530E-01                                                                                                                                                                                                                                                                                                                                                                                                                                                                                              
  1.435000E+03  1.250000E+02 -4.975000E+03  3.274624E-07 -2.248218E-11 -7.687489E-17  3.274624E-07  1.900107E-09 -1.296156E-13 -4.432039E-19  1.900107E-09  0.000000E+00  0.000000E+00  0.000000E+00  0.000000E+00  0.000000E+00  0.000000E+00  0.000000E+00  0.000000E+00  3.411957E-01 -2.229845E-05 -7.624667E-11  3.411957E-01                                                                                                                                                                                                                                                                                                                                                                                                                                                                                              
  1.250000E+02  1.250000E+02 -4.725000E+03  1.828399E-06  1.011003E-09 -1.022838E-15 -1.828399E-06  1.034244E-08  5.756651E-12 -5.824036E-18 -1.034244E-08  0.000000E+00  0.000000E+00  0.000000E+00  0.000000E+00  0.000000E+00  0.000000E+00  0.000000E+00  0.000000E+00  1.664569E+00  9.538734E-04 -9.650394E-10 -1.664568E+00                                                                                                                                                                                                                                                                                                                                                                                                                                                                                              
  3.750000E+02  1.250000E+02 -4.725000E+03  1.829079E-06  1.071804E-08 -2.093116E-16 -1.829048E-06  1.034561E-08  6.102851E-11 -1.191821E-18 -1.034543E-08  0.000000E+00  0.000000E+00  0.000000E+00  0.000000E+00  0.000000E+00  0.000000E+00  0.000000E+00  0.000000E+00  1.664331E+00  1.011238E-02 -1.974836E-10 -1.664300E+00                                                                                                                                                                                                                                                                                                                                                                                                                                                                                              
  6.250000E+02  1.250000E+02 -4.725000E+03  1.747071E-06  6.345591E-10 -8.711845E-16 -1.747071E-06  9.788983E-09  3.612989E-12 -4.960564E-18 -9.788983E-09  0.000000E+00  0.000000E+00  0.000000E+00  0.000000E+00  0.000000E+00  0.000000E+00  0.000000E+00  0.000000E+00  1.461140E+00  5.988377E-04 -8.219294E-10 -1.461140E+00                                                                                                                                                                                                                                                                                                                                                                                                                                                                                              
  7.600000E+02  1.250000E+02 -4.725000E+03  1.785706E-06 -1.874499E-08 -8.432495E-16 -1.785608E-06  1.004703E-08 -1.067344E-10 -4.801480E-18 -1.004647E-08  0.000000E+00  0.000000E+00  0.000000E+00  0.000000E+00  0.000000E+00  0.000000E+00  0.000000E+00  0.000000E+00  1.552663E+00 -1.768552E-02 -7.955856E-10 -1.552563E+00                                                                                                                                                                                                                                                                                                                                                                                                                                                                                              
  7.800000E+02  1.250000E+02 -4.725000E+03  1.807219E-06 -1.842412E-08 -7.708643E-16 -1.807125E-06  1.019166E-08 -1.049073E-10 -4.389319E-18 -1.019112E-08  0.000000E+00  0.000000E+00  0.000000E+00  0.000000E+00  0.000000E+00  0.000000E+00  0.000000E+00  0.000000E+00  1.604060E+00 -1.738287E-02 -7.272970E-10 -1.603965E+00                                                                                                                                                                                                                                                                                                                                                                                                                                                                                              
  8.000000E+02  1.250000E+02 -4.725000E+03  1.822045E-06 -1.561919E-08 -8.077345E-16 -1.821978E-06  1.029300E-08 -8.893586E-11 -4.599260E-18 -1.029261E-08  0.000000E+00  0.000000E+00  0.000000E+00  0.000000E+00  0.000000E+00  0.000000E+00  0.000000E+00  0.000000E+00  1.641152E+00 -1.473653E-02 -7.620869E-10 -1.641086E+00                                                                                                                                                                                                                                                                                                                                                                                                                                                                                              
  9.350000E+02  1.250000E+02 -4.725000E+03  1.829048E-06 -7.539651E-09 -8.399523E-16 -1.829032E-06  1.034600E-08 -4.293080E-11 -4.782689E-18 -1.034591E-08  0.000000E+00  0.000000E+00  0.000000E+00  0.000000E+00  0.000000E+00  0.000000E+00  0.000000E+00  0.000000E+00  1.665043E+00 -7.113596E-03 -7.924878E-10 -1.665028E+00                                                                                                                                                                                                                                                                                                                                                                                                                                                                                              
  1.185000E+03  1.250000E+02 -4.725000E+03  1.828300E-06 -7.348322E-10  3.084770E-16 -1.828300E-06  1.034188E-08 -4.184132E-12  1.756467E-18 -1.034188E-08  0.000000E+00  0.000000E+00  0.000000E+00  0.000000E+00  0.000000E+00  0.000000E+00  0.000000E+00  0.000000E+00  1.664481E+00 -6.933081E-04  2.910455E-10 -1.664481E+00                                                                                                                                                                                                                                                                                                                                                                                                                                                                                              