Title="TOUGHREACT V3.30-OMP flowvector.tec: Liq & Gas Fluxes (kg/s/m^2), Pore Velocities (m/s), & Heat Fluxes (J/s/m2)"                                                                                                                                                                                                                                                                                                                                                                                                                                                                                                                                                                                                                                                                                                         
Variables= "X(m)"     "Y(m)"      "Z(m)"     "FluxLiq"   "FluxLiq_X"   "FluxLiq_Y"   "FluxLiq_Z"   "PorVelLiq"  "PorVelLiqX"  "PorVelLiqY"  "PorVelLiqZ"     "FluxGas"   "FluxGas_X"   "FluxGas_Y"   "FluxGas_Z"   "PorVelGas"  "PorVelGasX"  "PorVelGasY"  "PorVelGasZ"    "HeatFlux"  "HeatFlux_X"  "HeatFlux_Y"  "HeatFlux_Z"                                                                                                                                                                                                                                                                                                                                                                                                                                                                                                
Zone T= "3.00000000E+09 sec" I=     9 J=    10 K=    23 F=Point
  1.250000E+02  1.250000E+02 -5.425000E+03  1.912678E-08  3.213650E-10 -1.360396E-10 -1.912360E-08  1.117257E-10  1.889450E-12 -7.998380E-13 -1.117068E-10  0.000000E+00  0.000000E+00  0.000000E+00  0.000000E+00  0.000000E+00  0.000000E+00  0.000000E+00  0.000000E+00  1.991400E-02  3.480060E-04 -1.473172E-04 -1.991042E-02                                                                                                                                                                                                                                                                                                                                                                                                                                                                                              
  3.750000E+02  1.250000E+02 -5.425000E+03  1.888853E-08  5.777700E-10 -1.561055E-10 -1.887904E-08  1.103347E-10  3.396974E-12 -9.178154E-13 -1.102785E-10  0.000000E+00  0.000000E+00  0.000000E+00  0.000000E+00  0.000000E+00  0.000000E+00  0.000000E+00  0.000000E+00  1.966652E-02  6.256672E-04 -1.690468E-04 -1.965584E-02                                                                                                                                                                                                                                                                                                                                                                                                                                                                                              
  6.250000E+02  1.250000E+02 -5.425000E+03  1.873923E-08  2.174137E-10 -1.638454E-10 -1.873725E-08  1.094622E-10  1.278275E-12 -9.633232E-13 -1.094505E-10  0.000000E+00  0.000000E+00  0.000000E+00  0.000000E+00  0.000000E+00  0.000000E+00  0.000000E+00  0.000000E+00  1.951053E-02  2.354374E-04 -1.774286E-04 -1.950830E-02                                                                                                                                                                                                                                                                                                                                                                                                                                                                                              
  7.600000E+02  1.250000E+02 -5.425000E+03  1.873796E-08 -1.024142E-10 -1.576430E-10 -1.873702E-08  1.094547E-10 -6.021406E-13 -9.268560E-13 -1.094491E-10  0.000000E+00  0.000000E+00  0.000000E+00  0.000000E+00  0.000000E+00  0.000000E+00  0.000000E+00  0.000000E+00  1.950909E-02 -1.109045E-04 -1.707119E-04 -1.950803E-02                                                                                                                                                                                                                                                                                                                                                                                                                                                                                              
  7.800000E+02  1.250000E+02 -5.425000E+03  1.873922E-08 -1.512799E-10 -1.565812E-10 -1.873796E-08  1.094621E-10 -8.894446E-13 -9.206133E-13 -1.094546E-10  0.000000E+00  0.000000E+00  0.000000E+00  0.000000E+00  0.000000E+00  0.000000E+00  0.000000E+00  0.000000E+00  1.951042E-02 -1.638212E-04 -1.695621E-04 -1.950900E-02                                                                                                                                                                                                                                                                                                                                                                                                                                                                                              
  8.000000E+02  1.250000E+02 -5.425000E+03  1.874159E-08 -2.000336E-10 -1.553740E-10 -1.873988E-08  1.094759E-10 -1.176090E-12 -9.135155E-13 -1.094658E-10  0.000000E+00  0.000000E+00  0.000000E+00  0.000000E+00  0.000000E+00  0.000000E+00  0.000000E+00  0.000000E+00  1.951292E-02 -2.166166E-04 -1.682547E-04 -1.951099E-02                                                                                                                                                                                                                                                                                                                                                                                                                                                                                              
  9.350000E+02  1.250000E+02 -5.425000E+03  1.876711E-08 -5.085506E-10 -1.462289E-10 -1.875965E-08  1.096254E-10 -2.990001E-12 -8.597468E-13 -1.095812E-10  0.000000E+00  0.000000E+00  0.000000E+00  0.000000E+00  0.000000E+00  0.000000E+00  0.000000E+00  0.000000E+00  1.953993E-02 -5.507092E-04 -1.583514E-04 -1.953152E-02                                                                                                                                                                                                                                                                                                                                                                                                                                                                                              
  1.185000E+03  1.250000E+02 -5.425000E+03  1.899022E-08 -7.729514E-10 -1.044740E-10 -1.897420E-08  1.109290E-10 -4.544530E-12 -6.142495E-13 -1.108342E-10  0.000000E+00  0.000000E+00  0.000000E+00  0.000000E+00  0.000000E+00  0.000000E+00  0.000000E+00  0.000000E+00  1.977291E-02 -8.370285E-04 -1.131348E-04 -1.975486E-02                                                                                                                                                                                                                                                                                                                                                                                                                                                                                              
  1.435000E+03  1.250000E+02 -5.425000E+03  1.922696E-08 -3.765774E-10 -5.721347E-11 -1.922319E-08  1.123108E-10 -2.214066E-12 -3.363834E-13 -1.122885E-10  0.000000E+00  0.000000E+00  0.000000E+00  0.000000E+00  0.000000E+00  0.000000E+00  0.000000E+00  0.000000E+00  2.001836E-02 -4.077953E-04 -6.195641E-05 -2.001411E-02                                                                                                                                                                                                                                                                                                                                                                                                                                                                                              
  1.250000E+02  1.250000E+02 -5.225000E+03  7.639292E-08  5.100390E-10 -1.606163E-10 -7.639104E-08  4.419225E-10  2.962755E-12 -9.329996E-13 -4.419116E-10  0.000000E+00  0.000000E+00  0.000000E+00  0.000000E+00  0.000000E+00  0.000000E+00  0.000000E+00  0.000000E+00  7.675615E-02  5.310240E-04 -1.672247E-04 -7.675413E-02                                                                                                                                                                                                                                                                                                                                                                                                                                                                                              
  3.750000E+02  1.250000E+02 -5.225000E+03  7.521897E-08  8.725589E-10 -1.882552E-10 -7.521367E-08  4.351370E-10  5.068593E-12 -1.093553E-12 -4.351061E-10  0.000000E+00  0.000000E+00  0.000000E+00  0.000000E+00  0.000000E+00  0.000000E+00  0.000000E+00  0.000000E+00  7.557931E-02  9.084600E-04 -1.960012E-04 -7.557360E-02                                                                                                                                                                                                                                                                                                                                                                                                                                                                                              
  6.250000E+02  1.250000E+02 -5.225000E+03  7.467585E-08  3.265286E-10 -1.938829E-10 -7.467489E-08  4.319959E-10  1.896769E-12 -1.126246E-12 -4.319903E-10  0.000000E+00  0.000000E+00  0.000000E+00  0.000000E+00  0.000000E+00  0.000000E+00  0.000000E+00  0.000000E+00  7.503356E-02  3.399637E-04 -2.018613E-04 -7.503252E-02                                                                                                                                                                                                                                                                                                                                                                                                                                                                                              
  7.600000E+02  1.250000E+02 -5.225000E+03  7.466399E-08 -1.054559E-10 -1.875587E-10 -7.466368E-08  4.319270E-10 -6.125826E-13 -1.089509E-12 -4.319252E-10  0.000000E+00  0.000000E+00  0.000000E+00  0.000000E+00  0.000000E+00  0.000000E+00  0.000000E+00  0.000000E+00  7.502135E-02 -1.097952E-04 -1.952765E-04 -7.502101E-02                                                                                                                                                                                                                                                                                                                                                                                                                                                                                              
  7.800000E+02  1.250000E+02 -5.225000E+03  7.466531E-08 -1.725792E-10 -1.864727E-10 -7.466487E-08  4.319347E-10 -1.002495E-12 -1.083200E-12 -4.319321E-10  0.000000E+00  0.000000E+00  0.000000E+00  0.000000E+00  0.000000E+00  0.000000E+00  0.000000E+00  0.000000E+00  7.502268E-02 -1.796806E-04 -1.941458E-04 -7.502221E-02                                                                                                                                                                                                                                                                                                                                                                                                                                                                                              
  8.000000E+02  1.250000E+02 -5.225000E+03  7.466978E-08 -2.399809E-10 -1.852318E-10 -7.466916E-08  4.319605E-10 -1.394024E-12 -1.075992E-12 -4.319569E-10  0.000000E+00  0.000000E+00  0.000000E+00  0.000000E+00  0.000000E+00  0.000000E+00  0.000000E+00  0.000000E+00  7.502720E-02 -2.498552E-04 -1.928537E-04 -7.502653E-02                                                                                                                                                                                                                                                                                                                                                                                                                                                                                              
  9.350000E+02  1.250000E+02 -5.225000E+03  7.472438E-08 -6.962294E-10 -1.757709E-10 -7.472093E-08  4.322766E-10 -4.044315E-12 -1.021034E-12 -4.322565E-10  0.000000E+00  0.000000E+00  0.000000E+00  0.000000E+00  0.000000E+00  0.000000E+00  0.000000E+00  0.000000E+00  7.508236E-02 -7.248750E-04 -1.830031E-04 -7.507863E-02                                                                                                                                                                                                                                                                                                                                                                                                                                                                                              
  1.185000E+03  1.250000E+02 -5.225000E+03  7.563295E-08 -1.127982E-09 -1.271138E-10 -7.562443E-08  4.375305E-10 -6.552308E-12 -7.383884E-13 -4.374808E-10  0.000000E+00  0.000000E+00  0.000000E+00  0.000000E+00  0.000000E+00  0.000000E+00  0.000000E+00  0.000000E+00  7.599506E-02 -1.174392E-03 -1.323438E-04 -7.598587E-02                                                                                                                                                                                                                                                                                                                                                                                                                                                                                              
  1.435000E+03  1.250000E+02 -5.225000E+03  7.678500E-08 -5.686191E-10 -5.913889E-11 -7.678287E-08  4.441902E-10 -3.303034E-12 -3.435300E-13 -4.441778E-10  0.000000E+00  0.000000E+00  0.000000E+00  0.000000E+00  0.000000E+00  0.000000E+00  0.000000E+00  0.000000E+00  7.715035E-02 -5.920143E-04 -6.157211E-05 -7.714806E-02                                                                                                                                                                                                                                                                                                                                                                                                                                                                                              
  1.250000E+02  1.250000E+02 -4.975000E+03  1.538511E-07  1.433120E-09 -2.623353E-10 -1.538442E-07  8.796718E-10  8.212357E-12 -1.503286E-12 -8.796322E-10  0.000000E+00  0.000000E+00  0.000000E+00  0.000000E+00  0.000000E+00  0.000000E+00  0.000000E+00  0.000000E+00  1.479906E-01  1.422516E-03 -2.603945E-04 -1.479835E-01                                                                                                                                                                                                                                                                                                                                                                                                                                                                                              
  3.750000E+02  1.250000E+02 -4.975000E+03  1.498238E-07  2.179106E-09 -3.082838E-10 -1.498077E-07  8.566723E-10  1.248718E-11 -1.766595E-12 -8.565795E-10  0.000000E+00  0.000000E+00  0.000000E+00  0.000000E+00  0.000000E+00  0.000000E+00  0.000000E+00  0.000000E+00  1.441116E-01  2.162982E-03 -3.060027E-04 -1.440950E-01                                                                                                                                                                                                                                                                                                                                                                                                                                                                                              
  6.250000E+02  1.250000E+02 -4.975000E+03  1.489928E-07  7.371903E-10 -2.873720E-10 -1.489907E-07  8.517477E-10  4.224420E-12 -1.646770E-12 -8.517356E-10  0.000000E+00  0.000000E+00  0.000000E+00  0.000000E+00  0.000000E+00  0.000000E+00  0.000000E+00  0.000000E+00  1.430833E-01  7.317352E-04 -2.852482E-04 -1.430812E-01                                                                                                                                                                                                                                                                                                                                                                                                                                                                                              
  7.600000E+02  1.250000E+02 -4.975000E+03  1.490055E-07 -7.540200E-11 -2.813962E-10 -1.490052E-07  8.518364E-10 -4.320868E-13 -1.612524E-12 -8.518348E-10  0.000000E+00  0.000000E+00  0.000000E+00  0.000000E+00  0.000000E+00  0.000000E+00  0.000000E+00  0.000000E+00  1.431180E-01 -7.484425E-05 -2.793149E-04 -1.431177E-01                                                                                                                                                                                                                                                                                                                                                                                                                                                                                              
  7.800000E+02  1.250000E+02 -4.975000E+03  1.489853E-07 -1.926709E-10 -2.804636E-10 -1.489849E-07  8.517318E-10 -1.104089E-12 -1.607179E-12 -8.517296E-10  0.000000E+00  0.000000E+00  0.000000E+00  0.000000E+00  0.000000E+00  0.000000E+00  0.000000E+00  0.000000E+00  1.431128E-01 -1.912456E-04 -2.783891E-04 -1.431124E-01                                                                                                                                                                                                                                                                                                                                                                                                                                                                                              
  8.000000E+02  1.250000E+02 -4.975000E+03  1.489575E-07 -3.141393E-10 -2.794643E-10 -1.489569E-07  8.515890E-10 -1.800156E-12 -1.601452E-12 -8.515856E-10  0.000000E+00  0.000000E+00  0.000000E+00  0.000000E+00  0.000000E+00  0.000000E+00  0.000000E+00  0.000000E+00  1.431067E-01 -3.118148E-04 -2.773970E-04 -1.431060E-01                                                                                                                                                                                                                                                                                                                                                                                                                                                                                              
  9.350000E+02  1.250000E+02 -4.975000E+03  1.487475E-07 -1.424040E-09 -2.721204E-10 -1.487405E-07  8.505233E-10 -8.160345E-12 -1.559367E-12 -8.504828E-10  0.000000E+00  0.000000E+00  0.000000E+00  0.000000E+00  0.000000E+00  0.000000E+00  0.000000E+00  0.000000E+00  1.430783E-01 -1.413502E-03 -2.701066E-04 -1.430710E-01                                                                                                                                                                                                                                                                                                                                                                                                                                                                                              
  1.185000E+03  1.250000E+02 -4.975000E+03  1.510190E-07 -2.704708E-09 -2.192022E-10 -1.509946E-07  8.635057E-10 -1.549907E-11 -1.256118E-12 -8.633657E-10  0.000000E+00  0.000000E+00  0.000000E+00  0.000000E+00  0.000000E+00  0.000000E+00  0.000000E+00  0.000000E+00  1.452718E-01 -2.684698E-03 -2.175801E-04 -1.452468E-01                                                                                                                                                                                                                                                                                                                                                                                                                                                                                              
  1.435000E+03  1.250000E+02 -4.975000E+03  1.546977E-07 -1.468743E-09 -6.970595E-11 -1.546907E-07  8.845148E-10 -8.416475E-12 -3.994425E-13 -8.844746E-10  0.000000E+00  0.000000E+00  0.000000E+00  0.000000E+00  0.000000E+00  0.000000E+00  0.000000E+00  0.000000E+00  1.488122E-01 -1.457880E-03 -6.919046E-05 -1.488050E-01                                                                                                                                                                                                                                                                                                                                                                                                                                                                                              
  1.250000E+02  1.250000E+02 -4.725000E+03  2.401794E-07  4.621023E-09 -5.332991E-10 -2.401343E-07  1.323617E-09  2.612989E-11 -3.015736E-12 -1.323355E-09  0.000000E+00  0.000000E+00  0.000000E+00  0.000000E+00  0.000000E+00  0.000000E+00  0.000000E+00  0.000000E+00  1.647007E-01  4.360877E-03 -5.032995E-04 -1.646422E-01                                                                                                                                                                                                                                                                                                                                                                                                                                                                                              
  3.750000E+02  1.250000E+02 -4.725000E+03  2.274965E-07  6.514950E-09 -5.056901E-10 -2.274027E-07  1.248298E-09  3.683526E-11 -2.859355E-12 -1.247751E-09  0.000000E+00  0.000000E+00  0.000000E+00  0.000000E+00  0.000000E+00  0.000000E+00  0.000000E+00  0.000000E+00  1.430666E-01  6.147501E-03 -4.770401E-04 -1.429337E-01                                                                                                                                                                                                                                                                                                                                                                                                                                                                                              
  6.250000E+02  1.250000E+02 -4.725000E+03  2.274732E-07  1.695267E-09 -3.407209E-10 -2.274667E-07  1.247127E-09  9.582765E-12 -1.925308E-12 -1.247089E-09  0.000000E+00  0.000000E+00  0.000000E+00  0.000000E+00  0.000000E+00  0.000000E+00  0.000000E+00  0.000000E+00  1.413431E-01  1.599647E-03 -3.205958E-04 -1.413336E-01                                                                                                                                                                                                                                                                                                                                                                                                                                                                                              
  7.600000E+02  1.250000E+02 -4.725000E+03  2.273075E-07 -5.811855E-10 -3.364442E-10 -2.273065E-07  1.246290E-09 -3.284333E-12 -1.901273E-12 -1.246284E-09  0.000000E+00  0.000000E+00  0.000000E+00  0.000000E+00  0.000000E+00  0.000000E+00  0.000000E+00  0.000000E+00  1.413097E-01 -5.470636E-04 -3.166575E-04 -1.413083E-01                                                                                                                                                                                                                                                                                                                                                                                                                                                                                              
  7.800000E+02  1.250000E+02 -4.725000E+03  2.272227E-07 -9.523381E-10 -3.365279E-10 -2.272205E-07  1.245856E-09 -5.382009E-12 -1.901823E-12 -1.245843E-09  0.000000E+00  0.000000E+00  0.000000E+00  0.000000E+00  0.000000E+00  0.000000E+00  0.000000E+00  0.000000E+00  1.412814E-01 -8.965955E-04 -3.167863E-04 -1.412782E-01                                                                                                                                                                                                                                                                                                                                                                                                                                                                                              
  8.000000E+02  1.250000E+02 -4.725000E+03  2.271013E-07 -1.331562E-09 -3.372748E-10 -2.270971E-07  1.245234E-09 -7.526445E-12 -1.906154E-12 -1.245210E-09  0.000000E+00  0.000000E+00  0.000000E+00  0.000000E+00  0.000000E+00  0.000000E+00  0.000000E+00  0.000000E+00  1.412403E-01 -1.255111E-03 -3.175613E-04 -1.412344E-01                                                                                                                                                                                                                                                                                                                                                                                                                                                                                              
  9.350000E+02  1.250000E+02 -4.725000E+03  2.269314E-07 -3.583534E-09 -3.465012E-10 -2.269028E-07  1.244773E-09 -2.026192E-11 -1.959258E-12 -1.244606E-09  0.000000E+00  0.000000E+00  0.000000E+00  0.000000E+00  0.000000E+00  0.000000E+00  0.000000E+00  0.000000E+00  1.417990E-01 -3.381013E-03 -3.268734E-04 -1.417583E-01                                                                                                                                                                                                                                                                                                                                                                                                                                                                                              
  1.185000E+03  1.250000E+02 -4.725000E+03  2.304429E-07 -7.130988E-09 -4.200830E-10 -2.303322E-07  1.265421E-09 -4.032322E-11 -2.375406E-12 -1.264776E-09  0.000000E+00  0.000000E+00  0.000000E+00  0.000000E+00  0.000000E+00  0.000000E+00  0.000000E+00  0.000000E+00  1.473309E-01 -6.729385E-03 -3.963581E-04 -1.471766E-01                                                                                                                                                                                                                                                                                                                                                                                                                                                                                              