Title="TOUGHREACT V3.30-OMP flowvector.tec: Liq & Gas Fluxes (kg/s/m^2), Pore Velocities (m/s), & Heat Fluxes (J/s/m2)"                                                                                                                                                                                                                                                                                                                                                                                                                                                                                                                                                                                                                                                                                                         
Variables= "X(m)"     "Y(m)"      "Z(m)"     "FluxLiq"   "FluxLiq_X"   "FluxLiq_Y"   "FluxLiq_Z"   "PorVelLiq"  "PorVelLiqX"  "PorVelLiqY"  "PorVelLiqZ"     "FluxGas"   "FluxGas_X"   "FluxGas_Y"   "FluxGas_Z"   "PorVelGas"  "PorVelGasX"  "PorVelGasY"  "PorVelGasZ"    "HeatFlux"  "HeatFlux_X"  "HeatFlux_Y"  "HeatFlux_Z"                                                                                                                                                                                                                                                                                                                                                                                                                                                                                                
Zone T= "1.50000000E+09 sec" I=     9 J=    10 K=    23 F=Point
  1.250000E+02  1.250000E+02 -5.425000E+03  3.110970E-08 -1.504169E-09  1.789466E-09  3.102175E-08  1.820651E-10 -8.850105E-12  1.052876E-11  1.815449E-10  0.000000E+00  0.000000E+00  0.000000E+00  0.000000E+00  0.000000E+00  0.000000E+00  0.000000E+00  0.000000E+00  3.364075E-02 -1.626549E-03  1.935055E-03  3.354564E-02                                                                                                                                                                                                                                                                                                                                                                                                                                                                                              
  3.750000E+02  1.250000E+02 -5.425000E+03  3.004608E-08 -2.455889E-09  1.658566E-09  2.989958E-08  1.758436E-10 -1.444974E-11  9.758534E-12  1.749770E-10  0.000000E+00  0.000000E+00  0.000000E+00  0.000000E+00  0.000000E+00  0.000000E+00  0.000000E+00  0.000000E+00  3.249065E-02 -2.655704E-03  1.793508E-03  3.233223E-02                                                                                                                                                                                                                                                                                                                                                                                                                                                                                              
  6.250000E+02  1.250000E+02 -5.425000E+03  2.920788E-08  5.165393E-11  1.520601E-09  2.916822E-08  1.709313E-10  3.039167E-13  8.946771E-12  1.706967E-10  0.000000E+00  0.000000E+00  0.000000E+00  0.000000E+00  0.000000E+00  0.000000E+00  0.000000E+00  0.000000E+00  3.158432E-02  5.585665E-05  1.644322E-03  3.154144E-02                                                                                                                                                                                                                                                                                                                                                                                                                                                                                              
  7.600000E+02  1.250000E+02 -5.425000E+03  2.936332E-08  2.152342E-09  1.518835E-09  2.924492E-08  1.718461E-10  1.266375E-11  8.936391E-12  1.711457E-10  0.000000E+00  0.000000E+00  0.000000E+00  0.000000E+00  0.000000E+00  0.000000E+00  0.000000E+00  0.000000E+00  3.175238E-02  2.327461E-03  1.642411E-03  3.162434E-02                                                                                                                                                                                                                                                                                                                                                                                                                                                                                              
  7.800000E+02  1.250000E+02 -5.425000E+03  2.940227E-08  2.441156E-09  1.519426E-09  2.926133E-08  1.720755E-10  1.436306E-11  8.939872E-12  1.712418E-10  0.000000E+00  0.000000E+00  0.000000E+00  0.000000E+00  0.000000E+00  0.000000E+00  0.000000E+00  0.000000E+00  3.179449E-02  2.639773E-03  1.643050E-03  3.164209E-02                                                                                                                                                                                                                                                                                                                                                                                                                                                                                              
  8.000000E+02  1.250000E+02 -5.425000E+03  2.944846E-08  2.724466E-09  1.520864E-09  2.928269E-08  1.723474E-10  1.602997E-11  8.948330E-12  1.713669E-10  0.000000E+00  0.000000E+00  0.000000E+00  0.000000E+00  0.000000E+00  0.000000E+00  0.000000E+00  0.000000E+00  3.184443E-02  2.946133E-03  1.644604E-03  3.166518E-02                                                                                                                                                                                                                                                                                                                                                                                                                                                                                              
  9.350000E+02  1.250000E+02 -5.425000E+03  2.980961E-08  4.289153E-09  1.536188E-09  2.945939E-08  1.744728E-10  2.523619E-11  9.038514E-12  1.724012E-10  0.000000E+00  0.000000E+00  0.000000E+00  0.000000E+00  0.000000E+00  0.000000E+00  0.000000E+00  0.000000E+00  3.223492E-02  4.638121E-03  1.661173E-03  3.185622E-02                                                                                                                                                                                                                                                                                                                                                                                                                                                                                              
  1.185000E+03  1.250000E+02 -5.425000E+03  3.090450E-08  5.371836E-09  1.675536E-09  3.038790E-08  1.808921E-10  3.160654E-11  9.858475E-12  1.778364E-10  0.000000E+00  0.000000E+00  0.000000E+00  0.000000E+00  0.000000E+00  0.000000E+00  0.000000E+00  0.000000E+00  3.341882E-02  5.808884E-03  1.811854E-03  3.286019E-02                                                                                                                                                                                                                                                                                                                                                                                                                                                                                              
  1.435000E+03  1.250000E+02 -5.425000E+03  3.173124E-08  2.514961E-09  1.790496E-09  3.158071E-08  1.857088E-10  1.479746E-11  1.053494E-11  1.848183E-10  0.000000E+00  0.000000E+00  0.000000E+00  0.000000E+00  0.000000E+00  0.000000E+00  0.000000E+00  0.000000E+00  3.431277E-02  2.719572E-03  1.936163E-03  3.414999E-02                                                                                                                                                                                                                                                                                                                                                                                                                                                                                              
  1.250000E+02  1.250000E+02 -5.225000E+03  1.036966E-07 -2.349906E-09  2.046895E-09  1.036498E-07  6.016212E-10 -1.366733E-11  1.190507E-11  6.013481E-10  0.000000E+00  0.000000E+00  0.000000E+00  0.000000E+00  0.000000E+00  0.000000E+00  0.000000E+00  0.000000E+00  1.091968E-01 -2.446166E-03  2.130737E-03  1.091486E-01                                                                                                                                                                                                                                                                                                                                                                                                                                                                                              
  3.750000E+02  1.250000E+02 -5.225000E+03  9.860585E-08 -3.855222E-09  1.824131E-09  9.851357E-08  5.721133E-10 -2.242240E-11  1.060936E-11  5.715753E-10  0.000000E+00  0.000000E+00  0.000000E+00  0.000000E+00  0.000000E+00  0.000000E+00  0.000000E+00  0.000000E+00  1.038518E-01 -4.013154E-03  1.898853E-03  1.037569E-01                                                                                                                                                                                                                                                                                                                                                                                                                                                                                              
  6.250000E+02  1.250000E+02 -5.225000E+03  9.559917E-08 -4.097359E-10  1.598232E-09  9.558493E-08  5.546766E-10 -2.383063E-12  9.295487E-12  5.545936E-10  0.000000E+00  0.000000E+00  0.000000E+00  0.000000E+00  0.000000E+00  0.000000E+00  0.000000E+00  0.000000E+00  1.006939E-01 -4.265226E-04  1.663711E-03  1.006792E-01                                                                                                                                                                                                                                                                                                                                                                                                                                                                                              
  7.600000E+02  1.250000E+02 -5.225000E+03  9.597304E-08  2.383237E-09  1.595597E-09  9.593018E-08  5.568449E-10  1.386116E-11  9.280168E-12  5.565950E-10  0.000000E+00  0.000000E+00  0.000000E+00  0.000000E+00  0.000000E+00  0.000000E+00  0.000000E+00  0.000000E+00  1.010856E-01  2.480874E-03  1.660964E-03  1.010415E-01                                                                                                                                                                                                                                                                                                                                                                                                                                                                                              
  7.800000E+02  1.250000E+02 -5.225000E+03  9.605508E-08  2.764020E-09  1.596626E-09  9.600203E-08  5.573209E-10  1.607584E-11  9.286156E-12  5.570116E-10  0.000000E+00  0.000000E+00  0.000000E+00  0.000000E+00  0.000000E+00  0.000000E+00  0.000000E+00  0.000000E+00  1.011715E-01  2.877253E-03  1.662034E-03  1.011169E-01                                                                                                                                                                                                                                                                                                                                                                                                                                                                                              
  8.000000E+02  1.250000E+02 -5.225000E+03  9.615834E-08  3.137109E-09  1.599065E-09  9.609385E-08  5.579200E-10  1.824577E-11  9.300344E-12  5.575440E-10  0.000000E+00  0.000000E+00  0.000000E+00  0.000000E+00  0.000000E+00  0.000000E+00  0.000000E+00  0.000000E+00  1.012797E-01  3.265625E-03  1.664573E-03  1.012133E-01                                                                                                                                                                                                                                                                                                                                                                                                                                                                                              
  9.350000E+02  1.250000E+02 -5.225000E+03  9.699519E-08  5.184690E-09  1.624911E-09  9.684289E-08  5.627751E-10  3.015478E-11  9.450684E-12  5.618871E-10  0.000000E+00  0.000000E+00  0.000000E+00  0.000000E+00  0.000000E+00  0.000000E+00  0.000000E+00  0.000000E+00  1.021566E-01  5.397075E-03  1.691472E-03  1.019999E-01                                                                                                                                                                                                                                                                                                                                                                                                                                                                                              
  1.185000E+03  1.250000E+02 -5.225000E+03  1.006150E-07  6.918190E-09  1.858098E-09  1.003596E-07  5.837756E-10  4.023725E-11  1.080703E-11  5.822870E-10  0.000000E+00  0.000000E+00  0.000000E+00  0.000000E+00  0.000000E+00  0.000000E+00  0.000000E+00  0.000000E+00  1.059606E-01  7.201568E-03  1.934205E-03  1.056979E-01                                                                                                                                                                                                                                                                                                                                                                                                                                                                                              
  1.435000E+03  1.250000E+02 -5.225000E+03  1.057939E-07  3.394246E-09  2.056090E-09  1.057195E-07  6.137939E-10  1.974155E-11  1.195870E-11  6.133597E-10  0.000000E+00  0.000000E+00  0.000000E+00  0.000000E+00  0.000000E+00  0.000000E+00  0.000000E+00  0.000000E+00  1.114019E-01  3.533272E-03  2.140302E-03  1.113253E-01                                                                                                                                                                                                                                                                                                                                                                                                                                                                                              
  1.250000E+02  1.250000E+02 -4.975000E+03  1.735237E-07 -6.170029E-09  3.021133E-09  1.733876E-07  9.954968E-10 -3.541345E-11  1.734037E-11  9.947156E-10  0.000000E+00  0.000000E+00  0.000000E+00  0.000000E+00  0.000000E+00  0.000000E+00  0.000000E+00  0.000000E+00  1.757255E-01 -6.122940E-03  2.998066E-03  1.755932E-01                                                                                                                                                                                                                                                                                                                                                                                                                                                                                              
  3.750000E+02  1.250000E+02 -4.975000E+03  1.578083E-07 -9.767644E-09  2.344607E-09  1.574883E-07  9.055119E-10 -5.606209E-11  1.345708E-11  9.036746E-10  0.000000E+00  0.000000E+00  0.000000E+00  0.000000E+00  0.000000E+00  0.000000E+00  0.000000E+00  0.000000E+00  1.599316E-01 -9.693151E-03  2.326714E-03  1.596207E-01                                                                                                                                                                                                                                                                                                                                                                                                                                                                                              
  6.250000E+02  1.250000E+02 -4.975000E+03  1.512853E-07 -2.044366E-09  1.739792E-09  1.512615E-07  8.679519E-10 -1.173371E-11  9.985616E-12  8.678151E-10  0.000000E+00  0.000000E+00  0.000000E+00  0.000000E+00  0.000000E+00  0.000000E+00  0.000000E+00  0.000000E+00  1.533594E-01 -2.028793E-03  1.726540E-03  1.533362E-01                                                                                                                                                                                                                                                                                                                                                                                                                                                                                              
  7.600000E+02  1.250000E+02 -4.975000E+03  1.522973E-07  3.481689E-09  1.726761E-09  1.522477E-07  8.737642E-10  1.998330E-11  9.910831E-12  8.734794E-10  0.000000E+00  0.000000E+00  0.000000E+00  0.000000E+00  0.000000E+00  0.000000E+00  0.000000E+00  0.000000E+00  1.543755E-01  3.455155E-03  1.713596E-03  1.543273E-01                                                                                                                                                                                                                                                                                                                                                                                                                                                                                              
  7.800000E+02  1.250000E+02 -4.975000E+03  1.525418E-07  4.222380E-09  1.728877E-09  1.524735E-07  8.751739E-10  2.423455E-11  9.922980E-12  8.747820E-10  0.000000E+00  0.000000E+00  0.000000E+00  0.000000E+00  0.000000E+00  0.000000E+00  0.000000E+00  0.000000E+00  1.546203E-01  4.190187E-03  1.715695E-03  1.545540E-01                                                                                                                                                                                                                                                                                                                                                                                                                                                                                              
  8.000000E+02  1.250000E+02 -4.975000E+03  1.528417E-07  4.941536E-09  1.735053E-09  1.527520E-07  8.769060E-10  2.836218E-11  9.958429E-12  8.763906E-10  0.000000E+00  0.000000E+00  0.000000E+00  0.000000E+00  0.000000E+00  0.000000E+00  0.000000E+00  0.000000E+00  1.549208E-01  4.903856E-03  1.721822E-03  1.548336E-01                                                                                                                                                                                                                                                                                                                                                                                                                                                                                              
  9.350000E+02  1.250000E+02 -4.975000E+03  1.551800E-07  8.580019E-09  1.803830E-09  1.549321E-07  8.904213E-10  4.924558E-11  1.035321E-11  8.889982E-10  0.000000E+00  0.000000E+00  0.000000E+00  0.000000E+00  0.000000E+00  0.000000E+00  0.000000E+00  0.000000E+00  1.572650E-01  8.514553E-03  1.790063E-03  1.570242E-01                                                                                                                                                                                                                                                                                                                                                                                                                                                                                              
  1.185000E+03  1.250000E+02 -4.975000E+03  1.617298E-07  1.326412E-08  2.453924E-09  1.611663E-07  9.280186E-10  7.613113E-11  1.408471E-11  9.247833E-10  0.000000E+00  0.000000E+00  0.000000E+00  0.000000E+00  0.000000E+00  0.000000E+00  0.000000E+00  0.000000E+00  1.638836E-01  1.316286E-02  2.435188E-03  1.633360E-01                                                                                                                                                                                                                                                                                                                                                                                                                                                                                              
  1.435000E+03  1.250000E+02 -4.975000E+03  1.776002E-07  7.331693E-09  3.067224E-09  1.774223E-07  1.018888E-09  4.208155E-11  1.760524E-11  1.017867E-09  0.000000E+00  0.000000E+00  0.000000E+00  0.000000E+00  0.000000E+00  0.000000E+00  0.000000E+00  0.000000E+00  1.798432E-01  7.275715E-03  3.043803E-03  1.796702E-01                                                                                                                                                                                                                                                                                                                                                                                                                                                                                              
  1.250000E+02  1.250000E+02 -4.725000E+03  2.128413E-07 -1.738475E-08  4.832152E-09  2.120751E-07  1.185841E-09 -9.853503E-11  2.739004E-11  1.181422E-09  0.000000E+00  0.000000E+00  0.000000E+00  0.000000E+00  0.000000E+00  0.000000E+00  0.000000E+00  0.000000E+00  2.057834E-01 -1.640960E-02  4.561781E-03  2.050774E-01                                                                                                                                                                                                                                                                                                                                                                                                                                                                                              
  3.750000E+02  1.250000E+02 -4.725000E+03  1.644907E-07 -2.383647E-08  2.629565E-09  1.627332E-07  9.127272E-10 -1.350895E-10  1.490375E-11  9.025518E-10  0.000000E+00  0.000000E+00  0.000000E+00  0.000000E+00  0.000000E+00  0.000000E+00  0.000000E+00  0.000000E+00  1.595240E-01 -2.248403E-02  2.482067E-03  1.579120E-01                                                                                                                                                                                                                                                                                                                                                                                                                                                                                              
  6.250000E+02  1.250000E+02 -4.725000E+03  1.583742E-07 -3.844519E-09  1.195002E-09  1.583231E-07  8.764048E-10 -2.178691E-11  6.768434E-12  8.761078E-10  0.000000E+00  0.000000E+00  0.000000E+00  0.000000E+00  0.000000E+00  0.000000E+00  0.000000E+00  0.000000E+00  1.534267E-01 -3.619698E-03  1.125120E-03  1.533799E-01                                                                                                                                                                                                                                                                                                                                                                                                                                                                                              
  7.600000E+02  1.250000E+02 -4.725000E+03  1.612999E-07  5.818768E-09  1.089453E-09  1.611912E-07  8.927978E-10  3.295948E-11  6.171069E-12  8.921679E-10  0.000000E+00  0.000000E+00  0.000000E+00  0.000000E+00  0.000000E+00  0.000000E+00  0.000000E+00  0.000000E+00  1.562349E-01  5.479311E-03  1.026021E-03  1.561354E-01                                                                                                                                                                                                                                                                                                                                                                                                                                                                                              
  7.800000E+02  1.250000E+02 -4.725000E+03  1.629658E-07  6.923593E-09  1.085488E-09  1.628151E-07  9.019784E-10  3.921967E-11  6.148860E-12  9.011043E-10  0.000000E+00  0.000000E+00  0.000000E+00  0.000000E+00  0.000000E+00  0.000000E+00  0.000000E+00  0.000000E+00  1.578229E-01  6.521023E-03  1.022447E-03  1.576848E-01                                                                                                                                                                                                                                                                                                                                                                                                                                                                                              
  8.000000E+02  1.250000E+02 -4.725000E+03  1.639705E-07  7.879207E-09  1.096671E-09  1.637774E-07  9.075880E-10  4.464054E-11  6.212575E-12  9.064682E-10  0.000000E+00  0.000000E+00  0.000000E+00  0.000000E+00  0.000000E+00  0.000000E+00  0.000000E+00  0.000000E+00  1.587951E-01  7.422500E-03  1.033214E-03  1.586182E-01                                                                                                                                                                                                                                                                                                                                                                                                                                                                                              
  9.350000E+02  1.250000E+02 -4.725000E+03  1.680067E-07  1.338512E-08  1.269832E-09  1.674678E-07  9.306822E-10  7.585878E-11  7.197092E-12  9.275575E-10  0.000000E+00  0.000000E+00  0.000000E+00  0.000000E+00  0.000000E+00  0.000000E+00  0.000000E+00  0.000000E+00  1.628132E-01  1.262713E-02  1.198630E-03  1.623184E-01                                                                                                                                                                                                                                                                                                                                                                                                                                                                                              
  1.185000E+03  1.250000E+02 -4.725000E+03  1.706185E-07  2.797832E-08  2.944860E-09  1.682831E-07  9.483148E-10  1.585824E-10  1.669177E-11  9.348123E-10  0.000000E+00  0.000000E+00  0.000000E+00  0.000000E+00  0.000000E+00  0.000000E+00  0.000000E+00  0.000000E+00  1.654194E-01  2.641178E-02  2.780091E-03  1.632736E-01                                                                                                                                                                                                                                                                                                                                                                                                                                                                                              