Title="TOUGHREACT V3.30-OMP flowvector.tec: Liq & Gas Fluxes (kg/s/m^2), Pore Velocities (m/s), & Heat Fluxes (J/s/m2)"                                                                                                                                                                                                                                                                                                                                                                                                                                                                                                                                                                                                                                                                                                         
Variables= "X(m)"     "Y(m)"      "Z(m)"     "FluxLiq"   "FluxLiq_X"   "FluxLiq_Y"   "FluxLiq_Z"   "PorVelLiq"  "PorVelLiqX"  "PorVelLiqY"  "PorVelLiqZ"     "FluxGas"   "FluxGas_X"   "FluxGas_Y"   "FluxGas_Z"   "PorVelGas"  "PorVelGasX"  "PorVelGasY"  "PorVelGasZ"    "HeatFlux"  "HeatFlux_X"  "HeatFlux_Y"  "HeatFlux_Z"                                                                                                                                                                                                                                                                                                                                                                                                                                                                                                
Zone T= "3.00000000E+08 sec" I=     9 J=    10 K=    23 F=Point
  1.250000E+02  1.250000E+02 -5.425000E+03  3.747723E-07  7.924859E-09  5.546962E-14 -3.746885E-07  2.188064E-09  4.658735E-11  3.260849E-16 -2.187568E-09  0.000000E+00  0.000000E+00  0.000000E+00  0.000000E+00  0.000000E+00  0.000000E+00  0.000000E+00  0.000000E+00  3.902533E-01  8.562310E-03  5.993143E-08 -3.901594E-01                                                                                                                                                                                                                                                                                                                                                                                                                                                                                              
  3.750000E+02  1.250000E+02 -5.425000E+03  3.688310E-07  1.512691E-08  5.836922E-14 -3.685207E-07  2.153469E-09  8.892654E-11  3.431381E-16 -2.151632E-09  0.000000E+00  0.000000E+00  0.000000E+00  0.000000E+00  0.000000E+00  0.000000E+00  0.000000E+00  0.000000E+00  3.840832E-01  1.634366E-02  6.306410E-08 -3.837353E-01                                                                                                                                                                                                                                                                                                                                                                                                                                                                                              
  6.250000E+02  1.250000E+02 -5.425000E+03  3.588497E-07 -1.352143E-09  6.141903E-14 -3.588471E-07  2.095252E-09 -7.949268E-12  3.610746E-16 -2.095237E-09  0.000000E+00  0.000000E+00  0.000000E+00  0.000000E+00  0.000000E+00  0.000000E+00  0.000000E+00  0.000000E+00  3.736642E-01 -1.460897E-03  6.635909E-08 -3.736614E-01                                                                                                                                                                                                                                                                                                                                                                                                                                                                                              
  7.600000E+02  1.250000E+02 -5.425000E+03  3.631404E-07 -1.795351E-08  6.157181E-14 -3.626963E-07  2.120297E-09 -1.055450E-10  3.619681E-16 -2.117668E-09  0.000000E+00  0.000000E+00  0.000000E+00  0.000000E+00  0.000000E+00  0.000000E+00  0.000000E+00  0.000000E+00  3.781680E-01 -1.939758E-02  6.652425E-08 -3.776702E-01                                                                                                                                                                                                                                                                                                                                                                                                                                                                                              
  7.800000E+02  1.250000E+02 -5.425000E+03  3.638579E-07 -1.957487E-08  6.157606E-14 -3.633310E-07  2.124485E-09 -1.150763E-10  3.619923E-16 -2.121366E-09  0.000000E+00  0.000000E+00  0.000000E+00  0.000000E+00  0.000000E+00  0.000000E+00  0.000000E+00  0.000000E+00  3.789218E-01 -2.114935E-02  6.652886E-08 -3.783311E-01                                                                                                                                                                                                                                                                                                                                                                                                                                                                                              
  8.000000E+02  1.250000E+02 -5.425000E+03  3.646306E-07 -2.105212E-08  6.155991E-14 -3.640224E-07  2.128995E-09 -1.237597E-10  3.618966E-16 -2.125395E-09  0.000000E+00  0.000000E+00  0.000000E+00  0.000000E+00  0.000000E+00  0.000000E+00  0.000000E+00  0.000000E+00  3.797330E-01 -2.274545E-02  6.651143E-08 -3.790512E-01                                                                                                                                                                                                                                                                                                                                                                                                                                                                                              
  9.350000E+02  1.250000E+02 -5.425000E+03  3.697759E-07 -2.371742E-08  6.133038E-14 -3.690144E-07  2.158991E-09 -1.394247E-10  3.605414E-16 -2.154485E-09  0.000000E+00  0.000000E+00  0.000000E+00  0.000000E+00  0.000000E+00  0.000000E+00  0.000000E+00  0.000000E+00  3.851038E-01 -2.562522E-02  6.626356E-08 -3.842503E-01                                                                                                                                                                                                                                                                                                                                                                                                                                                                                              
  1.185000E+03  1.250000E+02 -5.425000E+03  3.762560E-07 -2.019601E-08  5.809157E-14 -3.757136E-07  2.196701E-09 -1.187211E-10  3.414894E-16 -2.193491E-09  0.000000E+00  0.000000E+00  0.000000E+00  0.000000E+00  0.000000E+00  0.000000E+00  0.000000E+00  0.000000E+00  3.918366E-01 -2.182062E-02  6.276453E-08 -3.912286E-01                                                                                                                                                                                                                                                                                                                                                                                                                                                                                              
  1.435000E+03  1.250000E+02 -5.425000E+03  3.783189E-07 -7.355148E-09  5.516870E-14 -3.782474E-07  2.208652E-09 -4.323623E-11  3.243010E-16 -2.208228E-09  0.000000E+00  0.000000E+00  0.000000E+00  0.000000E+00  0.000000E+00  0.000000E+00  0.000000E+00  0.000000E+00  3.939486E-01 -7.946827E-03  5.960671E-08 -3.938685E-01                                                                                                                                                                                                                                                                                                                                                                                                                                                                                              
  1.250000E+02  1.250000E+02 -5.225000E+03  1.405489E-06  1.272549E-08  4.921319E-14 -1.405432E-06  8.114700E-09  7.390619E-11  2.858157E-16 -8.114363E-09  0.000000E+00  0.000000E+00  0.000000E+00  0.000000E+00  0.000000E+00  0.000000E+00  0.000000E+00  0.000000E+00  1.413960E+00  1.325092E-02  5.124519E-08 -1.413898E+00                                                                                                                                                                                                                                                                                                                                                                                                                                                                                              
  3.750000E+02  1.250000E+02 -5.225000E+03  1.380356E-06  2.756029E-08  5.188274E-14 -1.380081E-06  7.970235E-09  1.600658E-10  3.013305E-16 -7.968627E-09  0.000000E+00  0.000000E+00  0.000000E+00  0.000000E+00  0.000000E+00  0.000000E+00  0.000000E+00  0.000000E+00  1.388705E+00  2.869818E-02  5.402475E-08 -1.388408E+00                                                                                                                                                                                                                                                                                                                                                                                                                                                                                              
  6.250000E+02  1.250000E+02 -5.225000E+03  1.327529E-06  7.206891E-10  5.468913E-14 -1.327529E-06  7.666528E-09  4.184175E-12  3.176435E-16 -7.666527E-09  0.000000E+00  0.000000E+00  0.000000E+00  0.000000E+00  0.000000E+00  0.000000E+00  0.000000E+00  0.000000E+00  1.335733E+00  7.504541E-04  5.694686E-08 -1.335733E+00                                                                                                                                                                                                                                                                                                                                                                                                                                                                                              
  7.600000E+02  1.250000E+02 -5.225000E+03  1.347644E-06 -2.970330E-08  5.484948E-14 -1.347316E-06  7.782175E-09 -1.725178E-10  3.185679E-16 -7.780263E-09  0.000000E+00  0.000000E+00  0.000000E+00  0.000000E+00  0.000000E+00  0.000000E+00  0.000000E+00  0.000000E+00  1.355930E+00 -3.092960E-02  5.711393E-08 -1.355577E+00                                                                                                                                                                                                                                                                                                                                                                                                                                                                                              
  7.800000E+02  1.250000E+02 -5.225000E+03  1.351028E-06 -3.250990E-08  5.485692E-14 -1.350637E-06  7.801635E-09 -1.888178E-10  3.186100E-16 -7.799350E-09  0.000000E+00  0.000000E+00  0.000000E+00  0.000000E+00  0.000000E+00  0.000000E+00  0.000000E+00  0.000000E+00  1.359329E+00 -3.385208E-02  5.712170E-08 -1.358908E+00                                                                                                                                                                                                                                                                                                                                                                                                                                                                                              
  8.000000E+02  1.250000E+02 -5.225000E+03  1.354759E-06 -3.501230E-08  5.484653E-14 -1.354307E-06  7.823083E-09 -2.033487E-10  3.185484E-16 -7.820439E-09  0.000000E+00  0.000000E+00  0.000000E+00  0.000000E+00  0.000000E+00  0.000000E+00  0.000000E+00  0.000000E+00  1.363075E+00 -3.645784E-02  5.711089E-08 -1.362587E+00                                                                                                                                                                                                                                                                                                                                                                                                                                                                                              
  9.350000E+02  1.250000E+02 -5.225000E+03  1.381534E-06 -3.606260E-08  5.464726E-14 -1.381063E-06  7.976948E-09 -2.094412E-10  3.173822E-16 -7.974198E-09  0.000000E+00  0.000000E+00  0.000000E+00  0.000000E+00  0.000000E+00  0.000000E+00  0.000000E+00  0.000000E+00  1.389919E+00 -3.755167E-02  5.690353E-08 -1.389411E+00                                                                                                                                                                                                                                                                                                                                                                                                                                                                                              
  1.185000E+03  1.250000E+02 -5.225000E+03  1.407887E-06 -2.721697E-08  5.153617E-14 -1.407624E-06  8.128347E-09 -1.580630E-10  2.992985E-16 -8.126810E-09  0.000000E+00  0.000000E+00  0.000000E+00  0.000000E+00  0.000000E+00  0.000000E+00  0.000000E+00  0.000000E+00  1.416416E+00 -2.834092E-02  5.366434E-08 -1.416132E+00                                                                                                                                                                                                                                                                                                                                                                                                                                                                                              
  1.435000E+03  1.250000E+02 -5.225000E+03  1.415950E-06 -9.245965E-09  4.888581E-14 -1.415919E-06  8.174614E-09 -5.369510E-11  2.838992E-16 -8.174437E-09  0.000000E+00  0.000000E+00  0.000000E+00  0.000000E+00  0.000000E+00  0.000000E+00  0.000000E+00  0.000000E+00  1.424535E+00 -9.627810E-03  5.090473E-08 -1.424503E+00                                                                                                                                                                                                                                                                                                                                                                                                                                                                                              
  1.250000E+02  1.250000E+02 -4.975000E+03  2.776794E-06  3.168744E-08  3.295355E-14 -2.776614E-06  1.578643E-08  1.810326E-10  1.882644E-16 -1.578540E-08  0.000000E+00  0.000000E+00  0.000000E+00  0.000000E+00  0.000000E+00  0.000000E+00  0.000000E+00  0.000000E+00  2.675184E+00  3.147211E-02  3.272962E-08 -2.674999E+00                                                                                                                                                                                                                                                                                                                                                                                                                                                                                              
  3.750000E+02  1.250000E+02 -4.975000E+03  2.729045E-06  8.928066E-08  3.538639E-14 -2.727584E-06  1.551696E-08  5.100996E-10  2.021817E-16 -1.550857E-08  0.000000E+00  0.000000E+00  0.000000E+00  0.000000E+00  0.000000E+00  0.000000E+00  0.000000E+00  0.000000E+00  2.628964E+00  8.867319E-02  3.514546E-08 -2.627468E+00                                                                                                                                                                                                                                                                                                                                                                                                                                                                                              
  6.250000E+02  1.250000E+02 -4.975000E+03  2.508486E-06  1.415343E-08  3.763259E-14 -2.508446E-06  1.427088E-08  8.084529E-11  2.150517E-16 -1.427065E-08  0.000000E+00  0.000000E+00  0.000000E+00  0.000000E+00  0.000000E+00  0.000000E+00  0.000000E+00  0.000000E+00  2.414967E+00  1.405744E-02  3.737579E-08 -2.414926E+00                                                                                                                                                                                                                                                                                                                                                                                                                                                                                              
  7.600000E+02  1.250000E+02 -4.975000E+03  2.576803E-06 -9.240587E-08  3.819860E-14 -2.575146E-06  1.465670E-08 -5.280167E-10  2.182712E-16 -1.464718E-08  0.000000E+00  0.000000E+00  0.000000E+00  0.000000E+00  0.000000E+00  0.000000E+00  0.000000E+00  0.000000E+00  2.480781E+00 -9.177596E-02  3.793818E-08 -2.479083E+00                                                                                                                                                                                                                                                                                                                                                                                                                                                                                              
  7.800000E+02  1.250000E+02 -4.975000E+03  2.590030E-06 -1.028993E-07  3.826994E-14 -2.587985E-06  1.473148E-08 -5.879687E-10  2.186763E-16 -1.471974E-08  0.000000E+00  0.000000E+00  0.000000E+00  0.000000E+00  0.000000E+00  0.000000E+00  0.000000E+00  0.000000E+00  2.493668E+00 -1.021980E-01  3.800908E-08 -2.491573E+00                                                                                                                                                                                                                                                                                                                                                                                                                                                                                              
  8.000000E+02  1.250000E+02 -4.975000E+03  2.606002E-06 -1.121043E-07  3.832714E-14 -2.603590E-06  1.482179E-08 -6.405346E-10  2.190004E-16 -1.480795E-08  0.000000E+00  0.000000E+00  0.000000E+00  0.000000E+00  0.000000E+00  0.000000E+00  0.000000E+00  0.000000E+00  2.509254E+00 -1.113409E-01  3.806594E-08 -2.506783E+00                                                                                                                                                                                                                                                                                                                                                                                                                                                                                              
  9.350000E+02  1.250000E+02 -4.975000E+03  2.726424E-06 -9.564322E-08  3.860439E-14 -2.724746E-06  1.550209E-08 -5.464356E-10  2.205644E-16 -1.549246E-08  0.000000E+00  0.000000E+00  0.000000E+00  0.000000E+00  0.000000E+00  0.000000E+00  0.000000E+00  0.000000E+00  2.626565E+00 -9.499290E-02  3.834165E-08 -2.624846E+00                                                                                                                                                                                                                                                                                                                                                                                                                                                                                              
  1.185000E+03  1.250000E+02 -4.975000E+03  2.774105E-06 -5.226530E-08  3.467068E-14 -2.773613E-06  1.577101E-08 -2.985825E-10  1.980682E-16 -1.576818E-08  0.000000E+00  0.000000E+00  0.000000E+00  0.000000E+00  0.000000E+00  0.000000E+00  0.000000E+00  0.000000E+00  2.672733E+00 -5.191056E-02  3.443528E-08 -2.672229E+00                                                                                                                                                                                                                                                                                                                                                                                                                                                                                              
  1.435000E+03  1.250000E+02 -4.975000E+03  2.780822E-06 -1.479316E-08  3.227608E-14 -2.780783E-06  1.580881E-08 -8.450784E-11  1.843806E-16 -1.580858E-08  0.000000E+00  0.000000E+00  0.000000E+00  0.000000E+00  0.000000E+00  0.000000E+00  0.000000E+00  0.000000E+00  2.679352E+00 -1.469283E-02  3.205718E-08 -2.679312E+00                                                                                                                                                                                                                                                                                                                                                                                                                                                                                              
  1.250000E+02  1.250000E+02 -4.725000E+03  4.193632E-06  6.066490E-08  1.289580E-14 -4.193193E-06  2.348302E-08  3.403950E-10  7.235917E-17 -2.348056E-08  0.000000E+00  0.000000E+00  0.000000E+00  0.000000E+00  0.000000E+00  0.000000E+00  0.000000E+00  0.000000E+00  3.885534E+00  5.737740E-02  1.219696E-08 -3.885110E+00                                                                                                                                                                                                                                                                                                                                                                                                                                                                                              
  3.750000E+02  1.250000E+02 -4.725000E+03  4.251243E-06  2.921804E-07  1.757239E-14 -4.241191E-06  2.376436E-08  1.639354E-09  9.861449E-17 -2.370775E-08  0.000000E+00  0.000000E+00  0.000000E+00  0.000000E+00  0.000000E+00  0.000000E+00  0.000000E+00  0.000000E+00  3.882482E+00  2.763150E-01  1.661771E-08 -3.872636E+00                                                                                                                                                                                                                                                                                                                                                                                                                                                                                              
  6.250000E+02  1.250000E+02 -4.725000E+03  3.390094E-06  9.517220E-08  1.831228E-14 -3.388758E-06  1.856623E-08  5.338356E-10  1.027810E-16 -1.855855E-08  0.000000E+00  0.000000E+00  0.000000E+00  0.000000E+00  0.000000E+00  0.000000E+00  0.000000E+00  0.000000E+00  2.408586E+00  9.025364E-02  1.727866E-08 -2.406895E+00                                                                                                                                                                                                                                                                                                                                                                                                                                                                                              
  7.600000E+02  1.250000E+02 -4.725000E+03  3.407410E-06 -3.098702E-07  2.212854E-14 -3.393291E-06  1.868758E-08 -1.738906E-09  1.241812E-16 -1.860650E-08  0.000000E+00  0.000000E+00  0.000000E+00  0.000000E+00  0.000000E+00  0.000000E+00  0.000000E+00  0.000000E+00  2.468439E+00 -2.924886E-01  2.088544E-08 -2.451049E+00                                                                                                                                                                                                                                                                                                                                                                                                                                                                                              
  7.800000E+02  1.250000E+02 -4.725000E+03  3.458329E-06 -3.823141E-07  2.295271E-14 -3.437132E-06  1.897826E-08 -2.145432E-09  1.288060E-16 -1.885661E-08  0.000000E+00  0.000000E+00  0.000000E+00  0.000000E+00  0.000000E+00  0.000000E+00  0.000000E+00  0.000000E+00  2.532061E+00 -3.609367E-01  2.166671E-08 -2.506203E+00                                                                                                                                                                                                                                                                                                                                                                                                                                                                                              
  8.000000E+02  1.250000E+02 -4.725000E+03  3.550693E-06 -4.479175E-07  2.391668E-14 -3.522327E-06  1.950497E-08 -2.513398E-09  1.342161E-16 -1.934235E-08  0.000000E+00  0.000000E+00  0.000000E+00  0.000000E+00  0.000000E+00  0.000000E+00  0.000000E+00  0.000000E+00  2.646599E+00 -4.232759E-01  2.258159E-08 -2.612532E+00                                                                                                                                                                                                                                                                                                                                                                                                                                                                                              
  9.350000E+02  1.250000E+02 -4.725000E+03  4.247390E-06 -3.045763E-07  2.923258E-14 -4.236456E-06  2.374499E-08 -1.708965E-09  1.640502E-16 -2.368341E-08  0.000000E+00  0.000000E+00  0.000000E+00  0.000000E+00  0.000000E+00  0.000000E+00  0.000000E+00  0.000000E+00  3.882244E+00 -2.880434E-01  2.764504E-08 -3.871543E+00                                                                                                                                                                                                                                                                                                                                                                                                                                                                                              
  1.185000E+03  1.250000E+02 -4.725000E+03  4.176284E-06 -8.120039E-08  1.465066E-14 -4.175494E-06  2.338557E-08 -4.556101E-10  8.220420E-17 -2.338113E-08  0.000000E+00  0.000000E+00  0.000000E+00  0.000000E+00  0.000000E+00  0.000000E+00  0.000000E+00  0.000000E+00  3.869096E+00 -7.680057E-02  1.385678E-08 -3.868333E+00                                                                                                                                                                                                                                                                                                                                                                                                                                                                                              