Title="TOUGHREACT V3.30-OMP flowvector.tec: Liq & Gas Fluxes (kg/s/m^2), Pore Velocities (m/s), & Heat Fluxes (J/s/m2)"                                                                                                                                                                                                                                                                                                                                                                                                                                                                                                                                                                                                                                                                                                         
Variables= "X(m)"     "Y(m)"      "Z(m)"     "FluxLiq"   "FluxLiq_X"   "FluxLiq_Y"   "FluxLiq_Z"   "PorVelLiq"  "PorVelLiqX"  "PorVelLiqY"  "PorVelLiqZ"     "FluxGas"   "FluxGas_X"   "FluxGas_Y"   "FluxGas_Z"   "PorVelGas"  "PorVelGasX"  "PorVelGasY"  "PorVelGasZ"    "HeatFlux"  "HeatFlux_X"  "HeatFlux_Y"  "HeatFlux_Z"                                                                                                                                                                                                                                                                                                                                                                                                                                                                                                
Zone T= "1.00000000E+06 sec" I=     9 J=    10 K=    23 F=Point
  1.250000E+02  1.250000E+02 -5.425000E+03  4.784949E-07  1.610613E-15 -1.660663E-16  4.784949E-07  2.807028E-09  9.496507E-18 -9.791613E-19  2.807028E-09  0.000000E+00  0.000000E+00  0.000000E+00  0.000000E+00  0.000000E+00  0.000000E+00  0.000000E+00  0.000000E+00  5.166252E-01  1.738960E-09 -1.792998E-10  5.166252E-01                                                                                                                                                                                                                                                                                                                                                                                                                                                                                              
  3.750000E+02  1.250000E+02 -5.425000E+03  4.784949E-07  1.276724E-15 -1.011630E-15  4.784949E-07  2.807028E-09  7.527826E-18 -5.964778E-18  2.807028E-09  0.000000E+00  0.000000E+00  0.000000E+00  0.000000E+00  0.000000E+00  0.000000E+00  0.000000E+00  0.000000E+00  5.166252E-01  1.378463E-09 -1.092244E-09  5.166252E-01                                                                                                                                                                                                                                                                                                                                                                                                                                                                                              
  6.250000E+02  1.250000E+02 -5.425000E+03  4.784949E-07 -1.069472E-15 -4.694290E-16  4.784949E-07  2.807028E-09 -6.305830E-18 -2.767850E-18  2.807028E-09  0.000000E+00  0.000000E+00  0.000000E+00  0.000000E+00  0.000000E+00  0.000000E+00  0.000000E+00  0.000000E+00  5.166252E-01 -1.154696E-09 -5.068369E-10  5.166252E-01                                                                                                                                                                                                                                                                                                                                                                                                                                                                                              
  7.600000E+02  1.250000E+02 -5.425000E+03  4.784949E-07 -2.547775E-15 -5.887165E-16  4.784949E-07  2.807028E-09 -1.502221E-17 -3.471194E-18  2.807028E-09  0.000000E+00  0.000000E+00  0.000000E+00  0.000000E+00  0.000000E+00  0.000000E+00  0.000000E+00  0.000000E+00  5.166252E-01 -2.750802E-09 -6.356302E-10  5.166252E-01                                                                                                                                                                                                                                                                                                                                                                                                                                                                                              
  7.800000E+02  1.250000E+02 -5.425000E+03  4.784949E-07 -6.972639E-15 -1.224117E-16  4.784949E-07  2.807028E-09 -4.111212E-17 -7.217648E-19  2.807028E-09  0.000000E+00  0.000000E+00  0.000000E+00  0.000000E+00  0.000000E+00  0.000000E+00  0.000000E+00  0.000000E+00  5.166252E-01 -7.528275E-09 -1.321665E-10  5.166252E-01                                                                                                                                                                                                                                                                                                                                                                                                                                                                                              
  8.000000E+02  1.250000E+02 -5.425000E+03  4.784949E-07 -3.294442E-15 -6.921621E-16  4.784949E-07  2.807028E-09 -1.942471E-17 -4.081131E-18  2.807028E-09  0.000000E+00  0.000000E+00  0.000000E+00  0.000000E+00  0.000000E+00  0.000000E+00  0.000000E+00  0.000000E+00  5.166252E-01 -3.556970E-09 -7.473192E-10  5.166252E-01                                                                                                                                                                                                                                                                                                                                                                                                                                                                                              
  9.350000E+02  1.250000E+02 -5.425000E+03  4.784949E-07  1.368364E-15 -1.325522E-16  4.784949E-07  2.807028E-09  8.068157E-18 -7.815552E-19  2.807028E-09  0.000000E+00  0.000000E+00  0.000000E+00  0.000000E+00  0.000000E+00  0.000000E+00  0.000000E+00  0.000000E+00  5.166252E-01  1.477406E-09 -1.431150E-10  5.166252E-01                                                                                                                                                                                                                                                                                                                                                                                                                                                                                              
  1.185000E+03  1.250000E+02 -5.425000E+03  4.784949E-07 -2.605811E-16  1.219278E-16  4.784949E-07  2.807028E-09 -1.536440E-18  7.189117E-19  2.807028E-09  0.000000E+00  0.000000E+00  0.000000E+00  0.000000E+00  0.000000E+00  0.000000E+00  0.000000E+00  0.000000E+00  5.166252E-01 -2.813464E-10  1.316440E-10  5.166252E-01                                                                                                                                                                                                                                                                                                                                                                                                                                                                                              
  1.435000E+03  1.250000E+02 -5.425000E+03  4.784949E-07  2.370603E-16 -7.799026E-16  4.784949E-07  2.807028E-09  1.397756E-18 -4.598467E-18  2.807028E-09  0.000000E+00  0.000000E+00  0.000000E+00  0.000000E+00  0.000000E+00  0.000000E+00  0.000000E+00  0.000000E+00  5.166252E-01  2.559511E-10 -8.420515E-10  5.166252E-01                                                                                                                                                                                                                                                                                                                                                                                                                                                                                              
  1.250000E+02  1.250000E+02 -5.225000E+03  9.331710E-07 -3.747970E-17 -2.074345E-16  9.331710E-07  5.444643E-09 -2.187571E-19 -1.210729E-18  5.444643E-09  0.000000E+00  0.000000E+00  0.000000E+00  0.000000E+00  0.000000E+00  0.000000E+00  0.000000E+00  0.000000E+00  9.897291E-01 -3.899873E-11 -2.158417E-10  9.897291E-01                                                                                                                                                                                                                                                                                                                                                                                                                                                                                              
  3.750000E+02  1.250000E+02 -5.225000E+03  9.331710E-07  2.384696E-17 -8.518395E-17  9.331710E-07  5.444643E-09  1.391871E-19 -4.971916E-19  5.444643E-09  0.000000E+00  0.000000E+00  0.000000E+00  0.000000E+00  0.000000E+00  0.000000E+00  0.000000E+00  0.000000E+00  9.897291E-01  2.481347E-11 -8.863642E-11  9.897291E-01                                                                                                                                                                                                                                                                                                                                                                                                                                                                                              
  6.250000E+02  1.250000E+02 -5.225000E+03  9.331710E-07  3.550004E-16 -4.157262E-16  9.331710E-07  5.444643E-09  2.072025E-18 -2.426461E-18  5.444643E-09  0.000000E+00  0.000000E+00  0.000000E+00  0.000000E+00  0.000000E+00  0.000000E+00  0.000000E+00  0.000000E+00  9.897291E-01  3.693885E-10 -4.325754E-10  9.897291E-01                                                                                                                                                                                                                                                                                                                                                                                                                                                                                              
  7.600000E+02  1.250000E+02 -5.225000E+03  9.331710E-07  1.224900E-16 -2.442635E-16  9.331710E-07  5.444643E-09  7.149350E-19 -1.425688E-18  5.444643E-09  0.000000E+00  0.000000E+00  0.000000E+00  0.000000E+00  0.000000E+00  0.000000E+00  0.000000E+00  0.000000E+00  9.897291E-01  1.274545E-10 -2.541634E-10  9.897291E-01                                                                                                                                                                                                                                                                                                                                                                                                                                                                                              
  7.800000E+02  1.250000E+02 -5.225000E+03  9.331710E-07 -9.132384E-16 -4.537016E-17  9.331710E-07  5.444643E-09 -5.330282E-18 -2.648112E-19  5.444643E-09  0.000000E+00  0.000000E+00  0.000000E+00  0.000000E+00  0.000000E+00  0.000000E+00  0.000000E+00  0.000000E+00  9.897291E-01 -9.502516E-10 -4.720899E-11  9.897291E-01                                                                                                                                                                                                                                                                                                                                                                                                                                                                                              
  8.000000E+02  1.250000E+02 -5.225000E+03  9.331710E-07 -8.437647E-16  3.362742E-17  9.331710E-07  5.444643E-09 -4.924786E-18  1.962725E-19  5.444643E-09  0.000000E+00  0.000000E+00  0.000000E+00  0.000000E+00  0.000000E+00  0.000000E+00  0.000000E+00  0.000000E+00  9.897291E-01 -8.779621E-10  3.499032E-11  9.897291E-01                                                                                                                                                                                                                                                                                                                                                                                                                                                                                              
  9.350000E+02  1.250000E+02 -5.225000E+03  9.331710E-07  4.260077E-17 -1.062114E-16  9.331710E-07  5.444643E-09  2.486471E-19 -6.199222E-19  5.444643E-09  0.000000E+00  0.000000E+00  0.000000E+00  0.000000E+00  0.000000E+00  0.000000E+00  0.000000E+00  0.000000E+00  9.897291E-01  4.432736E-11 -1.105161E-10  9.897291E-01                                                                                                                                                                                                                                                                                                                                                                                                                                                                                              
  1.185000E+03  1.250000E+02 -5.225000E+03  9.331710E-07 -2.485083E-16 -3.573326E-16  9.331710E-07  5.444643E-09 -1.450464E-18 -2.085637E-18  5.444643E-09  0.000000E+00  0.000000E+00  0.000000E+00  0.000000E+00  0.000000E+00  0.000000E+00  0.000000E+00  0.000000E+00  9.897291E-01 -2.585802E-10 -3.718152E-10  9.897291E-01                                                                                                                                                                                                                                                                                                                                                                                                                                                                                              
  1.435000E+03  1.250000E+02 -5.225000E+03  9.331710E-07 -3.928190E-16  1.050857E-16  9.331710E-07  5.444643E-09 -2.292760E-18  6.133516E-19  5.444643E-09  0.000000E+00  0.000000E+00  0.000000E+00  0.000000E+00  0.000000E+00  0.000000E+00  0.000000E+00  0.000000E+00  9.897291E-01 -4.087398E-10  1.093448E-10  9.897291E-01                                                                                                                                                                                                                                                                                                                                                                                                                                                                                              
  1.250000E+02  1.250000E+02 -4.975000E+03  8.804195E-07  2.581472E-15 -7.611160E-16  8.804195E-07  5.078048E-09  1.488456E-17 -4.388533E-18  5.078048E-09  0.000000E+00  0.000000E+00  0.000000E+00  0.000000E+00  0.000000E+00  0.000000E+00  0.000000E+00  0.000000E+00  8.953485E-01  2.560257E-09 -7.548610E-10  8.953485E-01                                                                                                                                                                                                                                                                                                                                                                                                                                                                                              
  3.750000E+02  1.250000E+02 -4.975000E+03  8.804197E-07  6.814065E-15 -2.652282E-15  8.804197E-07  5.078049E-09  3.928935E-17 -1.529284E-17  5.078049E-09  0.000000E+00  0.000000E+00  0.000000E+00  0.000000E+00  0.000000E+00  0.000000E+00  0.000000E+00  0.000000E+00  8.953487E-01  6.758066E-09 -2.630485E-09  8.953487E-01                                                                                                                                                                                                                                                                                                                                                                                                                                                                                              
  6.250000E+02  1.250000E+02 -4.975000E+03  8.804201E-07  1.593840E-14 -9.639338E-14  8.804201E-07  5.078051E-09  9.189950E-17 -5.557964E-16  5.078051E-09  0.000000E+00  0.000000E+00  0.000000E+00  0.000000E+00  0.000000E+00  0.000000E+00  0.000000E+00  0.000000E+00  8.953491E-01  1.580741E-08 -9.560120E-08  8.953491E-01                                                                                                                                                                                                                                                                                                                                                                                                                                                                                              
  7.600000E+02  1.250000E+02 -4.975000E+03  8.804207E-07  1.785034E-14 -1.687270E-14  8.804207E-07  5.078055E-09  1.029236E-16 -9.728660E-17  5.078055E-09  0.000000E+00  0.000000E+00  0.000000E+00  0.000000E+00  0.000000E+00  0.000000E+00  0.000000E+00  0.000000E+00  8.953497E-01  1.770365E-08 -1.673403E-08  8.953497E-01                                                                                                                                                                                                                                                                                                                                                                                                                                                                                              
  7.800000E+02  1.250000E+02 -4.975000E+03  8.804208E-07  6.055853E-15 -9.717534E-15  8.804208E-07  5.078055E-09  3.491756E-17 -5.603051E-17  5.078055E-09  0.000000E+00  0.000000E+00  0.000000E+00  0.000000E+00  0.000000E+00  0.000000E+00  0.000000E+00  0.000000E+00  8.953498E-01  6.006085E-09 -9.637673E-09  8.953498E-01                                                                                                                                                                                                                                                                                                                                                                                                                                                                                              
  8.000000E+02  1.250000E+02 -4.975000E+03  8.804208E-07 -5.112647E-15 -6.263950E-15  8.804208E-07  5.078055E-09 -2.947911E-17 -3.611743E-17  5.078055E-09  0.000000E+00  0.000000E+00  0.000000E+00  0.000000E+00  0.000000E+00  0.000000E+00  0.000000E+00  0.000000E+00  8.953498E-01 -5.070630E-09 -6.212472E-09  8.953498E-01                                                                                                                                                                                                                                                                                                                                                                                                                                                                                              
  9.350000E+02  1.250000E+02 -4.975000E+03  8.804205E-07 -9.151967E-15 -1.499377E-15  8.804205E-07  5.078054E-09 -5.276950E-17 -8.645285E-18  5.078054E-09  0.000000E+00  0.000000E+00  0.000000E+00  0.000000E+00  0.000000E+00  0.000000E+00  0.000000E+00  0.000000E+00  8.953495E-01 -9.076755E-09 -1.487055E-09  8.953495E-01                                                                                                                                                                                                                                                                                                                                                                                                                                                                                              
  1.185000E+03  1.250000E+02 -4.975000E+03  8.804202E-07 -6.006092E-15 -6.557968E-16  8.804202E-07  5.078052E-09 -3.463064E-17 -3.781271E-18  5.078052E-09  0.000000E+00  0.000000E+00  0.000000E+00  0.000000E+00  0.000000E+00  0.000000E+00  0.000000E+00  0.000000E+00  8.953492E-01 -5.956733E-09 -6.504074E-10  8.953492E-01                                                                                                                                                                                                                                                                                                                                                                                                                                                                                              
  1.435000E+03  1.250000E+02 -4.975000E+03  8.804200E-07 -1.878083E-15 -5.292830E-16  8.804200E-07  5.078051E-09 -1.082887E-17 -3.051803E-18  5.078051E-09  0.000000E+00  0.000000E+00  0.000000E+00  0.000000E+00  0.000000E+00  0.000000E+00  0.000000E+00  0.000000E+00  8.953490E-01 -1.862649E-09 -5.249332E-10  8.953490E-01                                                                                                                                                                                                                                                                                                                                                                                                                                                                                              
  1.250000E+02  1.250000E+02 -4.725000E+03  2.074981E-06  2.152851E-13 -8.700618E-14  2.074981E-06  1.180354E-08  1.226909E-15 -4.958479E-16  1.180354E-08  0.000000E+00  0.000000E+00  0.000000E+00  0.000000E+00  0.000000E+00  0.000000E+00  0.000000E+00  0.000000E+00  1.977868E+00  2.030650E-07 -8.206750E-08  1.977868E+00                                                                                                                                                                                                                                                                                                                                                                                                                                                                                              
  3.750000E+02  1.250000E+02 -4.725000E+03  2.074989E-06  6.208072E-13 -2.471709E-13  2.074989E-06  1.180359E-08  3.537978E-15 -1.408626E-15  1.180359E-08  0.000000E+00  0.000000E+00  0.000000E+00  0.000000E+00  0.000000E+00  0.000000E+00  0.000000E+00  0.000000E+00  1.977875E+00  5.855687E-07 -2.331409E-07  1.977875E+00                                                                                                                                                                                                                                                                                                                                                                                                                                                                                              
  6.250000E+02  1.250000E+02 -4.725000E+03  2.075008E-06  1.482480E-12 -1.271716E-11  2.075008E-06  1.180369E-08  8.448647E-15 -7.247503E-14  1.180369E-08  0.000000E+00  0.000000E+00  0.000000E+00  0.000000E+00  0.000000E+00  0.000000E+00  0.000000E+00  0.000000E+00  1.977893E+00  1.398331E-06 -1.199530E-05  1.977893E+00                                                                                                                                                                                                                                                                                                                                                                                                                                                                                              
  7.600000E+02  1.250000E+02 -4.725000E+03  2.075036E-06  1.627193E-12 -1.620972E-12  2.075036E-06  1.180386E-08  9.273368E-15 -9.237913E-15  1.180386E-08  0.000000E+00  0.000000E+00  0.000000E+00  0.000000E+00  0.000000E+00  0.000000E+00  0.000000E+00  0.000000E+00  1.977920E+00  1.534830E-06 -1.528962E-06  1.977920E+00                                                                                                                                                                                                                                                                                                                                                                                                                                                                                              
  7.800000E+02  1.250000E+02 -4.725000E+03  2.075039E-06  5.677076E-13 -7.966844E-13  2.075039E-06  1.180387E-08  3.235363E-15 -4.540301E-15  1.180387E-08  0.000000E+00  0.000000E+00  0.000000E+00  0.000000E+00  0.000000E+00  0.000000E+00  0.000000E+00  0.000000E+00  1.977922E+00  5.354832E-07 -7.514628E-07  1.977922E+00                                                                                                                                                                                                                                                                                                                                                                                                                                                                                              
  8.000000E+02  1.250000E+02 -4.725000E+03  2.075039E-06 -4.500998E-13 -4.819208E-13  2.075039E-06  1.180387E-08 -2.565117E-15 -2.746465E-15  1.180387E-08  0.000000E+00  0.000000E+00  0.000000E+00  0.000000E+00  0.000000E+00  0.000000E+00  0.000000E+00  0.000000E+00  1.977922E+00 -4.245511E-07 -4.545658E-07  1.977922E+00                                                                                                                                                                                                                                                                                                                                                                                                                                                                                              
  9.350000E+02  1.250000E+02 -4.725000E+03  2.075028E-06 -8.166206E-13 -1.252939E-13  2.075028E-06  1.180381E-08 -4.653918E-15 -7.140494E-16  1.180381E-08  0.000000E+00  0.000000E+00  0.000000E+00  0.000000E+00  0.000000E+00  0.000000E+00  0.000000E+00  0.000000E+00  1.977912E+00 -7.702673E-07 -1.181819E-07  1.977912E+00                                                                                                                                                                                                                                                                                                                                                                                                                                                                                              
  1.185000E+03  1.250000E+02 -4.725000E+03  2.075017E-06 -5.126000E-13 -5.578972E-14  2.075017E-06  1.180375E-08 -2.921306E-15 -3.179454E-16  1.180375E-08  0.000000E+00  0.000000E+00  0.000000E+00  0.000000E+00  0.000000E+00  0.000000E+00  0.000000E+00  0.000000E+00  1.977902E+00 -4.835037E-07 -5.262297E-08  1.977902E+00                                                                                                                                                                                                                                                                                                                                                                                                                                                                                              