Title="TOUGHREACT V3.30-OMP flowvector.tec: Liq & Gas Fluxes (kg/s/m^2), Pore Velocities (m/s), & Heat Fluxes (J/s/m2)"                                                                                                                                                                                                                                                                                                                                                                                                                                                                                                                                                                                                                                                                                                         
Variables= "X(m)"     "Y(m)"      "Z(m)"     "FluxLiq"   "FluxLiq_X"   "FluxLiq_Y"   "FluxLiq_Z"   "PorVelLiq"  "PorVelLiqX"  "PorVelLiqY"  "PorVelLiqZ"     "FluxGas"   "FluxGas_X"   "FluxGas_Y"   "FluxGas_Z"   "PorVelGas"  "PorVelGasX"  "PorVelGasY"  "PorVelGasZ"    "HeatFlux"  "HeatFlux_X"  "HeatFlux_Y"  "HeatFlux_Z"                                                                                                                                                                                                                                                                                                                                                                                                                                                                                                
Zone T= "5.18400000E+05 sec" I=     9 J=    10 K=    23 F=Point
  1.250000E+02  1.250000E+02 -5.425000E+03  4.867736E-07  1.755317E-15  4.140961E-16  4.867736E-07  2.855549E-09  1.034953E-17  2.441553E-18  2.855549E-09  0.000000E+00  0.000000E+00  0.000000E+00  0.000000E+00  0.000000E+00  0.000000E+00  0.000000E+00  0.000000E+00  5.255649E-01  1.895199E-09  4.470957E-10  5.255649E-01                                                                                                                                                                                                                                                                                                                                                                                                                                                                                              
  3.750000E+02  1.250000E+02 -5.425000E+03  4.867736E-07  9.189408E-16 -1.248547E-15  4.867736E-07  2.855549E-09  5.418169E-18 -7.361563E-18  2.855549E-09  0.000000E+00  0.000000E+00  0.000000E+00  0.000000E+00  0.000000E+00  0.000000E+00  0.000000E+00  0.000000E+00  5.255649E-01  9.921717E-10 -1.348045E-09  5.255649E-01                                                                                                                                                                                                                                                                                                                                                                                                                                                                                              
  6.250000E+02  1.250000E+02 -5.425000E+03  4.867736E-07 -2.677477E-15  2.285597E-16  4.867736E-07  2.855549E-09 -1.578668E-17  1.347611E-18  2.855549E-09  0.000000E+00  0.000000E+00  0.000000E+00  0.000000E+00  0.000000E+00  0.000000E+00  0.000000E+00  0.000000E+00  5.255649E-01 -2.890847E-09  2.467737E-10  5.255649E-01                                                                                                                                                                                                                                                                                                                                                                                                                                                                                              
  7.600000E+02  1.250000E+02 -5.425000E+03  4.867736E-07  2.033489E-15  9.916806E-16  4.867736E-07  2.855549E-09  1.198966E-17  5.847051E-18  2.855549E-09  0.000000E+00  0.000000E+00  0.000000E+00  0.000000E+00  0.000000E+00  0.000000E+00  0.000000E+00  0.000000E+00  5.255649E-01  2.195539E-09  1.070708E-09  5.255649E-01                                                                                                                                                                                                                                                                                                                                                                                                                                                                                              
  7.800000E+02  1.250000E+02 -5.425000E+03  4.867736E-07  1.690293E-15 -3.184667E-16  4.867736E-07  2.855549E-09  9.966141E-18 -1.877712E-18  2.855549E-09  0.000000E+00  0.000000E+00  0.000000E+00  0.000000E+00  0.000000E+00  0.000000E+00  0.000000E+00  0.000000E+00  5.255649E-01  1.824993E-09 -3.438455E-10  5.255649E-01                                                                                                                                                                                                                                                                                                                                                                                                                                                                                              
  8.000000E+02  1.250000E+02 -5.425000E+03  4.867736E-07 -4.546602E-16 -2.365858E-16  4.867736E-07  2.855549E-09 -2.680723E-18 -1.394934E-18  2.855549E-09  0.000000E+00  0.000000E+00  0.000000E+00  0.000000E+00  0.000000E+00  0.000000E+00  0.000000E+00  0.000000E+00  5.255649E-01 -4.908924E-10 -2.554394E-10  5.255649E-01                                                                                                                                                                                                                                                                                                                                                                                                                                                                                              
  9.350000E+02  1.250000E+02 -5.425000E+03  4.867736E-07  1.655846E-15 -2.307687E-16  4.867736E-07  2.855549E-09  9.763036E-18 -1.360636E-18  2.855549E-09  0.000000E+00  0.000000E+00  0.000000E+00  0.000000E+00  0.000000E+00  0.000000E+00  0.000000E+00  0.000000E+00  5.255649E-01  1.787801E-09 -2.491588E-10  5.255649E-01                                                                                                                                                                                                                                                                                                                                                                                                                                                                                              
  1.185000E+03  1.250000E+02 -5.425000E+03  4.867736E-07 -2.603695E-16 -1.440069E-16  4.867736E-07  2.855549E-09 -1.535166E-18 -8.490795E-19  2.855549E-09  0.000000E+00  0.000000E+00  0.000000E+00  0.000000E+00  0.000000E+00  0.000000E+00  0.000000E+00  0.000000E+00  5.255649E-01 -2.811185E-10 -1.554829E-10  5.255649E-01                                                                                                                                                                                                                                                                                                                                                                                                                                                                                              
  1.435000E+03  1.250000E+02 -5.425000E+03  4.867736E-07 -1.865778E-16  4.030931E-17  4.867736E-07  2.855549E-09 -1.100082E-18  2.376678E-19  2.855549E-09  0.000000E+00  0.000000E+00  0.000000E+00  0.000000E+00  0.000000E+00  0.000000E+00  0.000000E+00  0.000000E+00  5.255649E-01 -2.014463E-10  4.352158E-11  5.255649E-01                                                                                                                                                                                                                                                                                                                                                                                                                                                                                              
  1.250000E+02  1.250000E+02 -5.225000E+03  9.414946E-07  7.590956E-18 -9.505736E-17  9.414946E-07  5.493426E-09  4.430602E-20 -5.548199E-19  5.493426E-09  0.000000E+00  0.000000E+00  0.000000E+00  0.000000E+00  0.000000E+00  0.000000E+00  0.000000E+00  0.000000E+00  9.987154E-01  7.898613E-12 -9.890997E-11  9.987154E-01                                                                                                                                                                                                                                                                                                                                                                                                                                                                                              
  3.750000E+02  1.250000E+02 -5.225000E+03  9.414946E-07  1.563944E-16  4.877835E-17  9.414946E-07  5.493426E-09  9.128246E-19  2.847039E-19  5.493426E-09  0.000000E+00  0.000000E+00  0.000000E+00  0.000000E+00  0.000000E+00  0.000000E+00  0.000000E+00  0.000000E+00  9.987154E-01  1.627329E-10  5.075530E-11  9.987154E-01                                                                                                                                                                                                                                                                                                                                                                                                                                                                                              
  6.250000E+02  1.250000E+02 -5.225000E+03  9.414946E-07  1.782568E-16 -3.454660E-17  9.414946E-07  5.493426E-09  1.040429E-18 -2.016376E-19  5.493426E-09  0.000000E+00  0.000000E+00  0.000000E+00  0.000000E+00  0.000000E+00  0.000000E+00  0.000000E+00  0.000000E+00  9.987154E-01  1.854815E-10 -3.594675E-11  9.987154E-01                                                                                                                                                                                                                                                                                                                                                                                                                                                                                              
  7.600000E+02  1.250000E+02 -5.225000E+03  9.414946E-07  4.035791E-16 -8.017496E-17  9.414946E-07  5.493426E-09  2.355564E-18 -4.679560E-19  5.493426E-09  0.000000E+00  0.000000E+00  0.000000E+00  0.000000E+00  0.000000E+00  0.000000E+00  0.000000E+00  0.000000E+00  9.987154E-01  4.199359E-10 -8.342439E-11  9.987154E-01                                                                                                                                                                                                                                                                                                                                                                                                                                                                                              
  7.800000E+02  1.250000E+02 -5.225000E+03  9.414946E-07  2.780769E-16 -3.488742E-17  9.414946E-07  5.493426E-09  1.623047E-18 -2.036269E-19  5.493426E-09  0.000000E+00  0.000000E+00  0.000000E+00  0.000000E+00  0.000000E+00  0.000000E+00  0.000000E+00  0.000000E+00  9.987154E-01  2.893471E-10 -3.630138E-11  9.987154E-01                                                                                                                                                                                                                                                                                                                                                                                                                                                                                              
  8.000000E+02  1.250000E+02 -5.225000E+03  9.414946E-07 -3.857063E-16 -2.036648E-17  9.414946E-07  5.493426E-09 -2.251246E-18 -1.188728E-19  5.493426E-09  0.000000E+00  0.000000E+00  0.000000E+00  0.000000E+00  0.000000E+00  0.000000E+00  0.000000E+00  0.000000E+00  9.987154E-01 -4.013387E-10 -2.119192E-11  9.987154E-01                                                                                                                                                                                                                                                                                                                                                                                                                                                                                              
  9.350000E+02  1.250000E+02 -5.225000E+03  9.414946E-07 -2.039158E-16  1.091239E-16  9.414946E-07  5.493426E-09 -1.190192E-18  6.369217E-19  5.493426E-09  0.000000E+00  0.000000E+00  0.000000E+00  0.000000E+00  0.000000E+00  0.000000E+00  0.000000E+00  0.000000E+00  9.987154E-01 -2.121803E-10  1.135466E-10  9.987154E-01                                                                                                                                                                                                                                                                                                                                                                                                                                                                                              
  1.185000E+03  1.250000E+02 -5.225000E+03  9.414946E-07  3.588922E-17 -1.385582E-16  9.414946E-07  5.493426E-09  2.094740E-19 -8.087205E-19  5.493426E-09  0.000000E+00  0.000000E+00  0.000000E+00  0.000000E+00  0.000000E+00  0.000000E+00  0.000000E+00  0.000000E+00  9.987154E-01  3.734378E-11 -1.441739E-10  9.987154E-01                                                                                                                                                                                                                                                                                                                                                                                                                                                                                              
  1.435000E+03  1.250000E+02 -5.225000E+03  9.414946E-07 -4.985244E-17 -5.577029E-17  9.414946E-07  5.493426E-09 -2.909730E-19 -3.255136E-19  5.493426E-09  0.000000E+00  0.000000E+00  0.000000E+00  0.000000E+00  0.000000E+00  0.000000E+00  0.000000E+00  0.000000E+00  9.987154E-01 -5.187293E-11 -5.803062E-11  9.987154E-01                                                                                                                                                                                                                                                                                                                                                                                                                                                                                              
  1.250000E+02  1.250000E+02 -4.975000E+03  8.709194E-07  1.087762E-15 -4.733074E-17  8.709194E-07  5.023592E-09  6.271949E-18 -2.729054E-19  5.023592E-09  0.000000E+00  0.000000E+00  0.000000E+00  0.000000E+00  0.000000E+00  0.000000E+00  0.000000E+00  0.000000E+00  8.859284E-01  1.078822E-09 -4.694175E-11  8.859284E-01                                                                                                                                                                                                                                                                                                                                                                                                                                                                                              
  3.750000E+02  1.250000E+02 -4.975000E+03  8.709196E-07  2.920134E-15 -5.160691E-16  8.709196E-07  5.023593E-09  1.683727E-17 -2.975614E-18  5.023593E-09  0.000000E+00  0.000000E+00  0.000000E+00  0.000000E+00  0.000000E+00  0.000000E+00  0.000000E+00  0.000000E+00  8.859286E-01  2.896135E-09 -5.118278E-10  8.859286E-01                                                                                                                                                                                                                                                                                                                                                                                                                                                                                              
  6.250000E+02  1.250000E+02 -4.975000E+03  8.709199E-07  5.464097E-15 -1.696228E-14  8.709199E-07  5.023595E-09  3.150556E-17 -9.780318E-17  5.023595E-09  0.000000E+00  0.000000E+00  0.000000E+00  0.000000E+00  0.000000E+00  0.000000E+00  0.000000E+00  0.000000E+00  8.859289E-01  5.419190E-09 -1.682287E-08  8.859289E-01                                                                                                                                                                                                                                                                                                                                                                                                                                                                                              
  7.600000E+02  1.250000E+02 -4.975000E+03  8.709203E-07  6.219793E-15 -2.310772E-15  8.709203E-07  5.023597E-09  3.586285E-17 -1.332374E-17  5.023597E-09  0.000000E+00  0.000000E+00  0.000000E+00  0.000000E+00  0.000000E+00  0.000000E+00  0.000000E+00  0.000000E+00  8.859293E-01  6.168676E-09 -2.291782E-09  8.859293E-01                                                                                                                                                                                                                                                                                                                                                                                                                                                                                              
  7.800000E+02  1.250000E+02 -4.975000E+03  8.709203E-07  2.800293E-15 -1.340769E-15  8.709203E-07  5.023597E-09  1.614627E-17 -7.730772E-18  5.023597E-09  0.000000E+00  0.000000E+00  0.000000E+00  0.000000E+00  0.000000E+00  0.000000E+00  0.000000E+00  0.000000E+00  8.859293E-01  2.777279E-09 -1.329750E-09  8.859293E-01                                                                                                                                                                                                                                                                                                                                                                                                                                                                                              
  8.000000E+02  1.250000E+02 -4.975000E+03  8.709203E-07 -2.089177E-15 -1.006676E-15  8.709203E-07  5.023597E-09 -1.204604E-17 -5.804418E-18  5.023597E-09  0.000000E+00  0.000000E+00  0.000000E+00  0.000000E+00  0.000000E+00  0.000000E+00  0.000000E+00  0.000000E+00  8.859293E-01 -2.072007E-09 -9.984030E-10  8.859293E-01                                                                                                                                                                                                                                                                                                                                                                                                                                                                                              
  9.350000E+02  1.250000E+02 -4.975000E+03  8.709201E-07 -3.946826E-15 -5.542718E-16  8.709201E-07  5.023596E-09 -2.275709E-17 -3.195889E-18  5.023596E-09  0.000000E+00  0.000000E+00  0.000000E+00  0.000000E+00  0.000000E+00  0.000000E+00  0.000000E+00  0.000000E+00  8.859291E-01 -3.914389E-09 -5.497166E-10  8.859291E-01                                                                                                                                                                                                                                                                                                                                                                                                                                                                                              
  1.185000E+03  1.250000E+02 -4.975000E+03  8.709198E-07 -2.266250E-15 -3.641739E-16  8.709198E-07  5.023594E-09 -1.306702E-17 -2.099799E-18  5.023594E-09  0.000000E+00  0.000000E+00  0.000000E+00  0.000000E+00  0.000000E+00  0.000000E+00  0.000000E+00  0.000000E+00  8.859288E-01 -2.247625E-09 -3.611810E-10  8.859288E-01                                                                                                                                                                                                                                                                                                                                                                                                                                                                                              
  1.435000E+03  1.250000E+02 -4.975000E+03  8.709197E-07 -6.208247E-16 -2.831390E-16  8.709197E-07  5.023594E-09 -3.579627E-18 -1.632558E-18  5.023594E-09  0.000000E+00  0.000000E+00  0.000000E+00  0.000000E+00  0.000000E+00  0.000000E+00  0.000000E+00  0.000000E+00  8.859287E-01 -6.157225E-10 -2.808121E-10  8.859287E-01                                                                                                                                                                                                                                                                                                                                                                                                                                                                                              
  1.250000E+02  1.250000E+02 -4.725000E+03  1.944214E-06  1.548689E-13 -4.419855E-14  1.944214E-06  1.106027E-08  8.825752E-16 -2.518810E-16  1.106027E-08  0.000000E+00  0.000000E+00  0.000000E+00  0.000000E+00  0.000000E+00  0.000000E+00  0.000000E+00  0.000000E+00  1.854067E+00  1.460789E-07 -4.168994E-08  1.854067E+00                                                                                                                                                                                                                                                                                                                                                                                                                                                                                              
  3.750000E+02  1.250000E+02 -4.725000E+03  1.944226E-06  4.847410E-13 -9.814604E-14  1.944226E-06  1.106034E-08  2.762468E-15 -5.593199E-16  1.106034E-08  0.000000E+00  0.000000E+00  0.000000E+00  0.000000E+00  0.000000E+00  0.000000E+00  0.000000E+00  0.000000E+00  1.854078E+00  4.572282E-07 -9.257550E-08  1.854078E+00                                                                                                                                                                                                                                                                                                                                                                                                                                                                                              
  6.250000E+02  1.250000E+02 -4.725000E+03  1.944254E-06  9.857131E-13 -3.980222E-12  1.944254E-06  1.106050E-08  5.617434E-15 -2.268270E-14  1.106050E-08  0.000000E+00  0.000000E+00  0.000000E+00  0.000000E+00  0.000000E+00  0.000000E+00  0.000000E+00  0.000000E+00  1.854105E+00  9.297664E-07 -3.754314E-06  1.854105E+00                                                                                                                                                                                                                                                                                                                                                                                                                                                                                              
  7.600000E+02  1.250000E+02 -4.725000E+03  1.944288E-06  9.528791E-13 -4.202180E-13  1.944288E-06  1.106069E-08  5.430318E-15 -2.394761E-15  1.106069E-08  0.000000E+00  0.000000E+00  0.000000E+00  0.000000E+00  0.000000E+00  0.000000E+00  0.000000E+00  0.000000E+00  1.854137E+00  8.987960E-07 -3.963675E-07  1.854137E+00                                                                                                                                                                                                                                                                                                                                                                                                                                                                                              
  7.800000E+02  1.250000E+02 -4.725000E+03  1.944291E-06  2.490213E-13 -2.117875E-13  1.944291E-06  1.106071E-08  1.419136E-15 -1.206946E-15  1.106071E-08  0.000000E+00  0.000000E+00  0.000000E+00  0.000000E+00  0.000000E+00  0.000000E+00  0.000000E+00  0.000000E+00  1.854139E+00  2.348874E-07 -1.997670E-07  1.854139E+00                                                                                                                                                                                                                                                                                                                                                                                                                                                                                              
  8.000000E+02  1.250000E+02 -4.725000E+03  1.944291E-06 -4.387883E-13 -1.463156E-13  1.944291E-06  1.106071E-08 -2.500590E-15 -8.338312E-16  1.106071E-08  0.000000E+00  0.000000E+00  0.000000E+00  0.000000E+00  0.000000E+00  0.000000E+00  0.000000E+00  0.000000E+00  1.854139E+00 -4.138837E-07 -1.380111E-07  1.854139E+00                                                                                                                                                                                                                                                                                                                                                                                                                                                                                              
  9.350000E+02  1.250000E+02 -4.725000E+03  1.944273E-06 -6.573021E-13 -6.486853E-14  1.944273E-06  1.106060E-08 -3.745868E-15 -3.696762E-16  1.106060E-08  0.000000E+00  0.000000E+00  0.000000E+00  0.000000E+00  0.000000E+00  0.000000E+00  0.000000E+00  0.000000E+00  1.854123E+00 -6.199952E-07 -6.118674E-08  1.854123E+00                                                                                                                                                                                                                                                                                                                                                                                                                                                                                              
  1.185000E+03  1.250000E+02 -4.725000E+03  1.944255E-06 -3.948111E-13 -3.021698E-14  1.944255E-06  1.106050E-08 -2.249970E-15 -1.722021E-16  1.106050E-08  0.000000E+00  0.000000E+00  0.000000E+00  0.000000E+00  0.000000E+00  0.000000E+00  0.000000E+00  0.000000E+00  1.854105E+00 -3.724025E-07 -2.850193E-08  1.854105E+00                                                                                                                                                                                                                                                                                                                                                                                                                                                                                              