Title="TOUGHREACT V3.30-OMP flowvector.tec: Liq & Gas Fluxes (kg/s/m^2), Pore Velocities (m/s), & Heat Fluxes (J/s/m2)"                                                                                                                                                                                                                                                                                                                                                                                                                                                                                                                                                                                                                                                                                                         
Variables= "X(m)"     "Y(m)"      "Z(m)"     "FluxLiq"   "FluxLiq_X"   "FluxLiq_Y"   "FluxLiq_Z"   "PorVelLiq"  "PorVelLiqX"  "PorVelLiqY"  "PorVelLiqZ"     "FluxGas"   "FluxGas_X"   "FluxGas_Y"   "FluxGas_Z"   "PorVelGas"  "PorVelGasX"  "PorVelGasY"  "PorVelGasZ"    "HeatFlux"  "HeatFlux_X"  "HeatFlux_Y"  "HeatFlux_Z"                                                                                                                                                                                                                                                                                                                                                                                                                                                                                                
Zone T= "1.00000000E+10 sec" I=     9 J=    10 K=    23 F=Point
  1.250000E+02  1.250000E+02 -5.425000E+03  4.468635E-08 -4.182997E-09  5.047058E-09 -4.420294E-08  2.504285E-10 -2.360973E-11  2.848703E-11 -2.476802E-10  0.000000E+00  0.000000E+00  0.000000E+00  0.000000E+00  0.000000E+00  0.000000E+00  0.000000E+00  0.000000E+00  4.684903E-02 -4.583212E-03  5.529800E-03 -4.629522E-02                                                                                                                                                                                                                                                                                                                                                                                                                                                                                              
  3.750000E+02  1.250000E+02 -5.425000E+03  4.583354E-08 -1.460957E-08  5.397607E-09 -4.310615E-08  2.570348E-10 -8.245819E-11  3.046554E-11 -2.415355E-10  0.000000E+00  0.000000E+00  0.000000E+00  0.000000E+00  0.000000E+00  0.000000E+00  0.000000E+00  0.000000E+00  4.826684E-02 -1.600750E-02  5.914031E-03 -4.514945E-02                                                                                                                                                                                                                                                                                                                                                                                                                                                                                              
  6.250000E+02  1.250000E+02 -5.425000E+03  5.159097E-08 -2.742480E-08  6.243798E-09 -4.324955E-08  2.896994E-10 -1.547852E-10  3.524076E-11 -2.423332E-10  0.000000E+00  0.000000E+00  0.000000E+00  0.000000E+00  0.000000E+00  0.000000E+00  0.000000E+00  0.000000E+00  5.478987E-02 -3.004870E-02  6.841265E-03 -4.530125E-02                                                                                                                                                                                                                                                                                                                                                                                                                                                                                              
  7.600000E+02  1.250000E+02 -5.425000E+03  5.696383E-08 -3.434848E-08  7.049353E-09 -4.489283E-08  3.200499E-10 -1.938592E-10  3.978611E-11 -2.515305E-10  0.000000E+00  0.000000E+00  0.000000E+00  0.000000E+00  0.000000E+00  0.000000E+00  0.000000E+00  0.000000E+00  6.071997E-02 -3.763447E-02  7.723750E-03 -4.702026E-02                                                                                                                                                                                                                                                                                                                                                                                                                                                                                              
  7.800000E+02  1.250000E+02 -5.425000E+03  5.759214E-08 -3.502480E-08  7.170705E-09 -4.515195E-08  3.235930E-10 -1.976747E-10  4.047082E-11 -2.529807E-10  0.000000E+00  0.000000E+00  0.000000E+00  0.000000E+00  0.000000E+00  0.000000E+00  0.000000E+00  0.000000E+00  6.140734E-02 -3.837536E-02  7.856687E-03 -4.729129E-02                                                                                                                                                                                                                                                                                                                                                                                                                                                                                              
  8.000000E+02  1.250000E+02 -5.425000E+03  5.820022E-08 -3.564370E-08  7.293737E-09 -4.542680E-08  3.270190E-10 -2.011641E-10  4.116499E-11 -2.545190E-10  0.000000E+00  0.000000E+00  0.000000E+00  0.000000E+00  0.000000E+00  0.000000E+00  0.000000E+00  0.000000E+00  6.207033E-02 -3.905292E-02  7.991460E-03 -4.757870E-02                                                                                                                                                                                                                                                                                                                                                                                                                                                                                              
  9.350000E+02  1.250000E+02 -5.425000E+03  6.063694E-08 -3.696716E-08  8.133168E-09 -4.737213E-08  3.406919E-10 -2.086230E-10  4.590100E-11 -2.654063E-10  0.000000E+00  0.000000E+00  0.000000E+00  0.000000E+00  0.000000E+00  0.000000E+00  0.000000E+00  0.000000E+00  6.466241E-02 -4.050121E-02  8.910975E-03 -4.961325E-02                                                                                                                                                                                                                                                                                                                                                                                                                                                                                              
  1.185000E+03  1.250000E+02 -5.425000E+03  6.188795E-08 -3.171317E-08  9.501176E-09 -5.228882E-08  3.474293E-10 -1.789623E-10  5.361756E-11 -2.929245E-10  0.000000E+00  0.000000E+00  0.000000E+00  0.000000E+00  0.000000E+00  0.000000E+00  0.000000E+00  0.000000E+00  6.567796E-02 -3.474323E-02  1.040917E-02 -5.475538E-02                                                                                                                                                                                                                                                                                                                                                                                                                                                                                              
  1.435000E+03  1.250000E+02 -5.425000E+03  5.862927E-08 -1.271516E-08  1.012509E-08 -5.633116E-08  3.286081E-10 -7.175115E-11  5.713539E-11 -3.155481E-10  0.000000E+00  0.000000E+00  0.000000E+00  0.000000E+00  0.000000E+00  0.000000E+00  0.000000E+00  0.000000E+00  6.161162E-02 -1.392964E-02  1.109219E-02 -5.898237E-02                                                                                                                                                                                                                                                                                                                                                                                                                                                                                              
  1.250000E+02  1.250000E+02 -5.225000E+03  1.694742E-07 -3.230223E-09  6.014447E-09 -1.693366E-07  9.399421E-10 -1.798468E-11  3.348652E-11 -9.391733E-10  0.000000E+00  0.000000E+00  0.000000E+00  0.000000E+00  0.000000E+00  0.000000E+00  0.000000E+00  0.000000E+00  1.712868E-01 -3.383341E-03  6.299132E-03 -1.711375E-01                                                                                                                                                                                                                                                                                                                                                                                                                                                                                              
  3.750000E+02  1.250000E+02 -5.225000E+03  1.642802E-07 -1.353546E-08  6.417088E-09 -1.635958E-07  9.112230E-10 -7.535962E-11  3.572874E-11 -9.073984E-10  0.000000E+00  0.000000E+00  0.000000E+00  0.000000E+00  0.000000E+00  0.000000E+00  0.000000E+00  0.000000E+00  1.661340E-01 -1.417745E-02  6.721268E-03 -1.653914E-01                                                                                                                                                                                                                                                                                                                                                                                                                                                                                              
  6.250000E+02  1.250000E+02 -5.225000E+03  1.657895E-07 -2.929599E-08  7.442136E-09 -1.630108E-07  9.196963E-10 -1.631035E-10  4.143522E-11 -9.041690E-10  0.000000E+00  0.000000E+00  0.000000E+00  0.000000E+00  0.000000E+00  0.000000E+00  0.000000E+00  0.000000E+00  1.678479E-01 -3.068480E-02  7.795181E-03 -1.648351E-01                                                                                                                                                                                                                                                                                                                                                                                                                                                                                              
  7.600000E+02  1.250000E+02 -5.225000E+03  1.742481E-07 -3.847854E-08  8.663218E-09 -1.697255E-07  9.666170E-10 -2.142226E-10  4.823174E-11 -9.413453E-10  0.000000E+00  0.000000E+00  0.000000E+00  0.000000E+00  0.000000E+00  0.000000E+00  0.000000E+00  0.000000E+00  1.765024E-01 -4.030184E-02  9.073759E-03 -1.715999E-01                                                                                                                                                                                                                                                                                                                                                                                                                                                                                              
  7.800000E+02  1.250000E+02 -5.225000E+03  1.755171E-07 -3.943977E-08  8.848320E-09 -1.707995E-07  9.736515E-10 -2.195715E-10  4.926195E-11 -9.472902E-10  0.000000E+00  0.000000E+00  0.000000E+00  0.000000E+00  0.000000E+00  0.000000E+00  0.000000E+00  0.000000E+00  1.777945E-01 -4.130826E-02  9.267561E-03 -1.726807E-01                                                                                                                                                                                                                                                                                                                                                                                                                                                                                              
  8.000000E+02  1.250000E+02 -5.225000E+03  1.768777E-07 -4.032958E-08  9.036973E-09 -1.719813E-07  9.811810E-10 -2.245199E-10  5.031189E-11 -9.538216E-10  0.000000E+00  0.000000E+00  0.000000E+00  0.000000E+00  0.000000E+00  0.000000E+00  0.000000E+00  0.000000E+00  1.791639E-01 -4.223876E-02  9.465060E-03 -1.738562E-01                                                                                                                                                                                                                                                                                                                                                                                                                                                                                              
  9.350000E+02  1.250000E+02 -5.225000E+03  1.854569E-07 -4.280218E-08  1.032823E-08 -1.801543E-07  1.028685E-09 -2.382691E-10  5.749802E-11 -9.990568E-10  0.000000E+00  0.000000E+00  0.000000E+00  0.000000E+00  0.000000E+00  0.000000E+00  0.000000E+00  0.000000E+00  1.878246E-01 -4.482402E-02  1.081685E-02 -1.820766E-01                                                                                                                                                                                                                                                                                                                                                                                                                                                                                              
  1.185000E+03  1.250000E+02 -5.225000E+03  2.042059E-07 -3.803052E-08  1.229886E-08 -2.002560E-07  1.132410E-09 -2.116899E-10  6.846142E-11 -1.110340E-09  0.000000E+00  0.000000E+00  0.000000E+00  0.000000E+00  0.000000E+00  0.000000E+00  0.000000E+00  0.000000E+00  2.066083E-01 -3.982282E-02  1.287902E-02 -2.023247E-01                                                                                                                                                                                                                                                                                                                                                                                                                                                                                              
  1.435000E+03  1.250000E+02 -5.225000E+03  2.182885E-07 -1.560595E-08  1.290211E-08 -2.173473E-07  1.210203E-09 -8.686336E-11  7.181351E-11 -1.204944E-09  0.000000E+00  0.000000E+00  0.000000E+00  0.000000E+00  0.000000E+00  0.000000E+00  0.000000E+00  0.000000E+00  2.205616E-01 -1.634044E-02  1.350934E-02 -2.195403E-01                                                                                                                                                                                                                                                                                                                                                                                                                                                                                              
  1.250000E+02  1.250000E+02 -4.975000E+03  3.384215E-07  1.416454E-09  1.038925E-08 -3.382591E-07  1.848870E-09  7.779411E-12  5.705928E-11 -1.847973E-09  0.000000E+00  0.000000E+00  0.000000E+00  0.000000E+00  0.000000E+00  0.000000E+00  0.000000E+00  0.000000E+00  3.193337E-01  1.413156E-03  1.036506E-02 -3.191623E-01                                                                                                                                                                                                                                                                                                                                                                                                                                                                                              
  3.750000E+02  1.250000E+02 -4.975000E+03  3.176637E-07 -7.933834E-09  1.107473E-08 -3.173714E-07  1.736347E-09 -4.357582E-11  6.083006E-11 -1.734734E-09  0.000000E+00  0.000000E+00  0.000000E+00  0.000000E+00  0.000000E+00  0.000000E+00  0.000000E+00  0.000000E+00  3.007056E-01 -7.919379E-03  1.105197E-02 -3.003980E-01                                                                                                                                                                                                                                                                                                                                                                                                                                                                                              
  6.250000E+02  1.250000E+02 -4.975000E+03  3.118173E-07 -3.714020E-08  1.251715E-08 -3.093444E-07  1.705063E-09 -2.039817E-10  6.875382E-11 -1.691421E-09  0.000000E+00  0.000000E+00  0.000000E+00  0.000000E+00  0.000000E+00  0.000000E+00  0.000000E+00  0.000000E+00  2.960815E-01 -3.706611E-02  1.249338E-02 -2.934864E-01                                                                                                                                                                                                                                                                                                                                                                                                                                                                                              
  7.600000E+02  1.250000E+02 -4.975000E+03  3.306469E-07 -5.682796E-08  1.592250E-08 -3.253374E-07  1.808110E-09 -3.121026E-10  8.745249E-11 -1.778822E-09  0.000000E+00  0.000000E+00  0.000000E+00  0.000000E+00  0.000000E+00  0.000000E+00  0.000000E+00  0.000000E+00  3.144304E-01 -5.671197E-02  1.589022E-02 -3.088652E-01                                                                                                                                                                                                                                                                                                                                                                                                                                                                                              
  7.800000E+02  1.250000E+02 -4.975000E+03  3.339127E-07 -5.926398E-08  1.645225E-08 -3.281993E-07  1.825925E-09 -3.254713E-10  9.036098E-11 -1.794409E-09  0.000000E+00  0.000000E+00  0.000000E+00  0.000000E+00  0.000000E+00  0.000000E+00  0.000000E+00  0.000000E+00  3.175341E-01 -5.913817E-02  1.641845E-02 -3.115462E-01                                                                                                                                                                                                                                                                                                                                                                                                                                                                                              
  8.000000E+02  1.250000E+02 -4.975000E+03  3.389738E-07 -6.145767E-08  1.700362E-08 -3.329221E-07  1.852446E-09 -3.374979E-10  9.338679E-11 -1.819046E-09  0.000000E+00  0.000000E+00  0.000000E+00  0.000000E+00  0.000000E+00  0.000000E+00  0.000000E+00  0.000000E+00  3.207845E-01 -6.131652E-02  1.696641E-02 -3.144123E-01                                                                                                                                                                                                                                                                                                                                                                                                                                                                                              
  9.350000E+02  1.250000E+02 -4.975000E+03  3.627609E-07 -6.814611E-08  2.080772E-08 -3.556945E-07  1.981943E-09 -3.741751E-10  1.142693E-10 -1.942945E-09  0.000000E+00  0.000000E+00  0.000000E+00  0.000000E+00  0.000000E+00  0.000000E+00  0.000000E+00  0.000000E+00  3.430268E-01 -6.797186E-02  2.075776E-02 -3.355835E-01                                                                                                                                                                                                                                                                                                                                                                                                                                                                                              
  1.185000E+03  1.250000E+02 -4.975000E+03  4.105469E-07 -6.510894E-08  2.575546E-08 -4.045322E-07  2.242372E-09 -3.574468E-10  1.414120E-10 -2.209178E-09  0.000000E+00  0.000000E+00  0.000000E+00  0.000000E+00  0.000000E+00  0.000000E+00  0.000000E+00  0.000000E+00  3.880576E-01 -6.492942E-02  2.568620E-02 -3.817238E-01                                                                                                                                                                                                                                                                                                                                                                                                                                                                                              
  1.435000E+03  1.250000E+02 -4.975000E+03  4.505611E-07 -2.819457E-08  2.530799E-08 -4.489653E-07  2.460616E-09 -1.547744E-10  1.389291E-10 -2.451810E-09  0.000000E+00  0.000000E+00  0.000000E+00  0.000000E+00  0.000000E+00  0.000000E+00  0.000000E+00  0.000000E+00  4.260846E-01 -2.811431E-02  2.523596E-02 -4.244064E-01                                                                                                                                                                                                                                                                                                                                                                                                                                                                                              
  1.250000E+02  1.250000E+02 -4.725000E+03  5.544181E-07  1.703014E-08  2.165110E-08 -5.537333E-07  2.873330E-09  9.146077E-11  1.162634E-10 -2.869520E-09  0.000000E+00  0.000000E+00  0.000000E+00  0.000000E+00  0.000000E+00  0.000000E+00  0.000000E+00  0.000000E+00  2.543767E-01  1.552746E-02  1.974069E-02 -2.531338E-01                                                                                                                                                                                                                                                                                                                                                                                                                                                                                              
  3.750000E+02  1.250000E+02 -4.725000E+03  4.862885E-07  1.502071E-08  2.344473E-08 -4.854907E-07  2.523715E-09  8.066089E-11  1.260796E-10 -2.519273E-09  0.000000E+00  0.000000E+00  0.000000E+00  0.000000E+00  0.000000E+00  0.000000E+00  0.000000E+00  0.000000E+00  2.216300E-01  1.368371E-02  2.145303E-02 -2.201645E-01                                                                                                                                                                                                                                                                                                                                                                                                                                                                                              
  6.250000E+02  1.250000E+02 -4.725000E+03  4.459746E-07 -4.922850E-08  2.301534E-08 -4.426513E-07  2.319455E-09 -2.646987E-10  1.238024E-10 -2.300974E-09  0.000000E+00  0.000000E+00  0.000000E+00  0.000000E+00  0.000000E+00  0.000000E+00  0.000000E+00  0.000000E+00  2.095985E-01 -4.524319E-02  2.111779E-02 -2.035648E-01                                                                                                                                                                                                                                                                                                                                                                                                                                                                                              
  7.600000E+02  1.250000E+02 -4.725000E+03  4.582337E-07 -1.003103E-07  3.379108E-08 -4.458410E-07  2.390527E-09 -5.394233E-10  1.818080E-10 -2.321764E-09  0.000000E+00  0.000000E+00  0.000000E+00  0.000000E+00  0.000000E+00  0.000000E+00  0.000000E+00  0.000000E+00  2.340638E-01 -9.219334E-02  3.105766E-02 -2.128889E-01                                                                                                                                                                                                                                                                                                                                                                                                                                                                                              
  7.800000E+02  1.250000E+02 -4.725000E+03  4.611562E-07 -1.125521E-07  3.568967E-08 -4.457840E-07  2.407441E-09 -6.050037E-10  1.920226E-10 -2.322255E-09  0.000000E+00  0.000000E+00  0.000000E+00  0.000000E+00  0.000000E+00  0.000000E+00  0.000000E+00  0.000000E+00  2.400738E-01 -1.030014E-01  3.280086E-02 -2.143601E-01                                                                                                                                                                                                                                                                                                                                                                                                                                                                                              
  8.000000E+02  1.250000E+02 -4.725000E+03  5.448763E-07 -1.195401E-07  3.771675E-08 -5.302620E-07  2.829595E-09 -6.419185E-10  2.027463E-10 -2.748353E-09  0.000000E+00  0.000000E+00  0.000000E+00  0.000000E+00  0.000000E+00  0.000000E+00  0.000000E+00  0.000000E+00  2.678299E-01 -1.089523E-01  3.438445E-02 -2.422395E-01                                                                                                                                                                                                                                                                                                                                                                                                                                                                                              
  9.350000E+02  1.250000E+02 -4.725000E+03  5.932292E-07 -1.290187E-07  5.223989E-08 -5.766681E-07  3.081648E-09 -6.923995E-10  2.808105E-10 -2.989696E-09  0.000000E+00  0.000000E+00  0.000000E+00  0.000000E+00  0.000000E+00  0.000000E+00  0.000000E+00  0.000000E+00  2.994131E-01 -1.176626E-01  4.760156E-02 -2.711786E-01                                                                                                                                                                                                                                                                                                                                                                                                                                                                                              
  1.185000E+03  1.250000E+02 -4.725000E+03  6.941121E-07 -1.277355E-07  6.836336E-08 -6.788237E-07  3.608103E-09 -6.856278E-10  3.673207E-10 -3.523265E-09  0.000000E+00  0.000000E+00  0.000000E+00  0.000000E+00  0.000000E+00  0.000000E+00  0.000000E+00  0.000000E+00  3.660023E-01 -1.167927E-01  6.239196E-02 -3.412102E-01                                                                                                                                                                                                                                                                                                                                                                                                                                                                                              