Title="TOUGHREACT V3.30-OMP flowvector.tec: Liq & Gas Fluxes (kg/s/m^2), Pore Velocities (m/s), & Heat Fluxes (J/s/m2)"                                                                                                                                                                                                                                                                                                                                                                                                                                                                                                                                                                                                                                                                                                         
Variables= "X(m)"     "Y(m)"      "Z(m)"     "FluxLiq"   "FluxLiq_X"   "FluxLiq_Y"   "FluxLiq_Z"   "PorVelLiq"  "PorVelLiqX"  "PorVelLiqY"  "PorVelLiqZ"     "FluxGas"   "FluxGas_X"   "FluxGas_Y"   "FluxGas_Z"   "PorVelGas"  "PorVelGasX"  "PorVelGasY"  "PorVelGasZ"    "HeatFlux"  "HeatFlux_X"  "HeatFlux_Y"  "HeatFlux_Z"                                                                                                                                                                                                                                                                                                                                                                                                                                                                                                
Zone T= "1.00000000E+09 sec" I=     9 J=    10 K=    23 F=Point
  1.250000E+02  1.250000E+02 -5.425000E+03  6.019931E-08 -3.097838E-10  5.516856E-09 -5.994518E-08  3.479154E-10 -1.801544E-12  3.208326E-11 -3.464283E-10  0.000000E+00  0.000000E+00  0.000000E+00  0.000000E+00  0.000000E+00  0.000000E+00  0.000000E+00  0.000000E+00  6.279157E-02 -3.353981E-04  5.972993E-03 -6.250594E-02                                                                                                                                                                                                                                                                                                                                                                                                                                                                                              
  3.750000E+02  1.250000E+02 -5.425000E+03  6.018441E-08 -3.726839E-09  6.077430E-09 -5.976068E-08  3.478424E-10 -2.167324E-11  3.534332E-11 -3.453628E-10  0.000000E+00  0.000000E+00  0.000000E+00  0.000000E+00  0.000000E+00  0.000000E+00  0.000000E+00  0.000000E+00  6.279024E-02 -4.035012E-03  6.579939E-03 -6.231402E-02                                                                                                                                                                                                                                                                                                                                                                                                                                                                                              
  6.250000E+02  1.250000E+02 -5.425000E+03  6.067016E-08 -1.235586E-08  6.440416E-09 -5.904848E-08  3.507336E-10 -7.185416E-11  3.745399E-11 -3.412451E-10  0.000000E+00  0.000000E+00  0.000000E+00  0.000000E+00  0.000000E+00  0.000000E+00  0.000000E+00  0.000000E+00  6.339334E-02 -1.337758E-02  6.972979E-03 -6.157218E-02                                                                                                                                                                                                                                                                                                                                                                                                                                                                                              
  7.600000E+02  1.250000E+02 -5.425000E+03  6.188144E-08 -1.818669E-08  6.018956E-09 -5.884156E-08  3.578282E-10 -1.057621E-10  3.500248E-11 -3.400444E-10  0.000000E+00  0.000000E+00  0.000000E+00  0.000000E+00  0.000000E+00  0.000000E+00  0.000000E+00  0.000000E+00  6.476714E-02 -1.969057E-02  6.516671E-03 -6.135631E-02                                                                                                                                                                                                                                                                                                                                                                                                                                                                                              
  7.800000E+02  1.250000E+02 -5.425000E+03  6.202399E-08 -1.878324E-08  5.951307E-09 -5.881111E-08  3.586631E-10 -1.092309E-10  3.460900E-11 -3.398676E-10  0.000000E+00  0.000000E+00  0.000000E+00  0.000000E+00  0.000000E+00  0.000000E+00  0.000000E+00  0.000000E+00  6.492909E-02 -2.033645E-02  6.443428E-03 -6.132453E-02                                                                                                                                                                                                                                                                                                                                                                                                                                                                                              
  8.000000E+02  1.250000E+02 -5.425000E+03  6.215745E-08 -1.933476E-08  5.878802E-09 -5.878057E-08  3.594446E-10 -1.124373E-10  3.418727E-11 -3.396904E-10  0.000000E+00  0.000000E+00  0.000000E+00  0.000000E+00  0.000000E+00  0.000000E+00  0.000000E+00  0.000000E+00  6.508085E-02 -2.093358E-02  6.364928E-03 -6.129266E-02                                                                                                                                                                                                                                                                                                                                                                                                                                                                                              
  9.350000E+02  1.250000E+02 -5.425000E+03  6.238095E-08 -2.078300E-08  5.359244E-09 -5.857243E-08  3.607597E-10 -1.208563E-10  3.116535E-11 -3.384820E-10  0.000000E+00  0.000000E+00  0.000000E+00  0.000000E+00  0.000000E+00  0.000000E+00  0.000000E+00  0.000000E+00  6.534675E-02 -2.250159E-02  5.802408E-03 -6.107543E-02                                                                                                                                                                                                                                                                                                                                                                                                                                                                                              
  1.185000E+03  1.250000E+02 -5.425000E+03  6.077437E-08 -1.810202E-08  4.147112E-09 -5.786745E-08  3.514020E-10 -1.052635E-10  2.411567E-11 -3.343971E-10  0.000000E+00  0.000000E+00  0.000000E+00  0.000000E+00  0.000000E+00  0.000000E+00  0.000000E+00  0.000000E+00  6.360203E-02 -1.959894E-02  4.490048E-03 -6.034020E-02                                                                                                                                                                                                                                                                                                                                                                                                                                                                                              
  1.435000E+03  1.250000E+02 -5.425000E+03  5.796044E-08 -7.118432E-09  3.433995E-09 -5.741906E-08  3.349668E-10 -4.139320E-11  1.996842E-11 -3.317991E-10  0.000000E+00  0.000000E+00  0.000000E+00  0.000000E+00  0.000000E+00  0.000000E+00  0.000000E+00  0.000000E+00  6.048109E-02 -7.707085E-03  3.717966E-03 -5.987270E-02                                                                                                                                                                                                                                                                                                                                                                                                                                                                                              
  1.250000E+02  1.250000E+02 -5.225000E+03  1.995711E-07 -1.590419E-10  5.400089E-09 -1.994980E-07  1.143032E-09 -9.142971E-13  3.104393E-11 -1.142610E-09  0.000000E+00  0.000000E+00  0.000000E+00  0.000000E+00  0.000000E+00  0.000000E+00  0.000000E+00  0.000000E+00  2.013171E-01 -1.658372E-04  5.630772E-03 -2.012383E-01                                                                                                                                                                                                                                                                                                                                                                                                                                                                                              
  3.750000E+02  1.250000E+02 -5.225000E+03  2.009040E-07 -2.940395E-09  6.324395E-09 -2.007829E-07  1.150627E-09 -1.690362E-11  3.635770E-11 -1.149928E-09  0.000000E+00  0.000000E+00  0.000000E+00  0.000000E+00  0.000000E+00  0.000000E+00  0.000000E+00  0.000000E+00  2.026388E-01 -3.066064E-03  6.594611E-03 -2.025082E-01                                                                                                                                                                                                                                                                                                                                                                                                                                                                                              
  6.250000E+02  1.250000E+02 -5.225000E+03  1.995654E-07 -1.122873E-08  7.182374E-09 -1.991197E-07  1.142957E-09 -6.455065E-11  4.128999E-11 -1.140385E-09  0.000000E+00  0.000000E+00  0.000000E+00  0.000000E+00  0.000000E+00  0.000000E+00  0.000000E+00  0.000000E+00  2.013039E-01 -1.170862E-02  7.489346E-03 -2.008235E-01                                                                                                                                                                                                                                                                                                                                                                                                                                                                                              
  7.600000E+02  1.250000E+02 -5.225000E+03  1.987691E-07 -1.719915E-08  6.557499E-09 -1.979149E-07  1.138409E-09 -9.887236E-11  3.769712E-11 -1.133481E-09  0.000000E+00  0.000000E+00  0.000000E+00  0.000000E+00  0.000000E+00  0.000000E+00  0.000000E+00  0.000000E+00  2.005352E-01 -1.793419E-02  6.837750E-03 -1.996146E-01                                                                                                                                                                                                                                                                                                                                                                                                                                                                                              
  7.800000E+02  1.250000E+02 -5.225000E+03  1.986264E-07 -1.778408E-08  6.456359E-09 -1.977233E-07  1.137594E-09 -1.022346E-10  3.711560E-11 -1.132383E-09  0.000000E+00  0.000000E+00  0.000000E+00  0.000000E+00  0.000000E+00  0.000000E+00  0.000000E+00  0.000000E+00  2.003958E-01 -1.854412E-02  6.732286E-03 -1.994224E-01                                                                                                                                                                                                                                                                                                                                                                                                                                                                                              
  8.000000E+02  1.250000E+02 -5.225000E+03  1.984641E-07 -1.831988E-08  6.347402E-09 -1.975147E-07  1.136667E-09 -1.053139E-10  3.648915E-11 -1.131189E-09  0.000000E+00  0.000000E+00  0.000000E+00  0.000000E+00  0.000000E+00  0.000000E+00  0.000000E+00  0.000000E+00  2.002378E-01 -1.910279E-02  6.618670E-03 -1.992145E-01                                                                                                                                                                                                                                                                                                                                                                                                                                                                                              
  9.350000E+02  1.250000E+02 -5.225000E+03  1.970914E-07 -1.947983E-08  5.564999E-09 -1.960474E-07  1.128809E-09 -1.119793E-10  3.199080E-11 -1.122786E-09  0.000000E+00  0.000000E+00  0.000000E+00  0.000000E+00  0.000000E+00  0.000000E+00  0.000000E+00  0.000000E+00  1.988695E-01 -2.031224E-02  5.802811E-03 -1.977443E-01                                                                                                                                                                                                                                                                                                                                                                                                                                                                                              
  1.185000E+03  1.250000E+02 -5.225000E+03  1.918254E-07 -1.680570E-08  3.996782E-09 -1.910460E-07  1.098669E-09 -9.660486E-11  2.297500E-11 -1.094173E-09  0.000000E+00  0.000000E+00  0.000000E+00  0.000000E+00  0.000000E+00  0.000000E+00  0.000000E+00  0.000000E+00  1.935777E-01 -1.752384E-02  4.167570E-03 -1.927378E-01                                                                                                                                                                                                                                                                                                                                                                                                                                                                                              
  1.435000E+03  1.250000E+02 -5.225000E+03  1.885033E-07 -6.613455E-09  3.209553E-09 -1.883599E-07  1.079625E-09 -3.801586E-11  1.844932E-11 -1.078798E-09  0.000000E+00  0.000000E+00  0.000000E+00  0.000000E+00  0.000000E+00  0.000000E+00  0.000000E+00  0.000000E+00  1.902007E-01 -6.896062E-03  3.346704E-03 -1.900461E-01                                                                                                                                                                                                                                                                                                                                                                                                                                                                                              
  1.250000E+02  1.250000E+02 -4.975000E+03  2.636444E-07 -1.637759E-09  4.236103E-09 -2.636053E-07  1.494733E-09 -9.286200E-12  2.401904E-11 -1.494511E-09  0.000000E+00  0.000000E+00  0.000000E+00  0.000000E+00  0.000000E+00  0.000000E+00  0.000000E+00  0.000000E+00  2.561165E-01 -1.628143E-03  4.211199E-03 -2.560767E-01                                                                                                                                                                                                                                                                                                                                                                                                                                                                                              
  3.750000E+02  1.250000E+02 -4.975000E+03  2.788455E-07 -3.397426E-09  6.380853E-09 -2.787517E-07  1.580310E-09 -1.926363E-11  3.618000E-11 -1.579779E-09  0.000000E+00  0.000000E+00  0.000000E+00  0.000000E+00  0.000000E+00  0.000000E+00  0.000000E+00  0.000000E+00  2.704650E-01 -3.377509E-03  6.343387E-03 -2.703695E-01                                                                                                                                                                                                                                                                                                                                                                                                                                                                                              
  6.250000E+02  1.250000E+02 -4.975000E+03  2.833754E-07 -8.109503E-09  1.003755E-08 -2.830814E-07  1.605465E-09 -4.598108E-11  5.691449E-11 -1.603797E-09  0.000000E+00  0.000000E+00  0.000000E+00  0.000000E+00  0.000000E+00  0.000000E+00  0.000000E+00  0.000000E+00  2.743532E-01 -8.061988E-03  9.978792E-03 -2.740532E-01                                                                                                                                                                                                                                                                                                                                                                                                                                                                                              
  7.600000E+02  1.250000E+02 -4.975000E+03  2.787818E-07 -1.282552E-08  8.280646E-09 -2.783635E-07  1.579543E-09 -7.272072E-11  4.695178E-11 -1.577170E-09  0.000000E+00  0.000000E+00  0.000000E+00  0.000000E+00  0.000000E+00  0.000000E+00  0.000000E+00  0.000000E+00  2.699942E-01 -1.275034E-02  8.232114E-03 -2.695673E-01                                                                                                                                                                                                                                                                                                                                                                                                                                                                                              
  7.800000E+02  1.250000E+02 -4.975000E+03  2.778945E-07 -1.304650E-08  7.990096E-09 -2.774731E-07  1.574536E-09 -7.397348E-11  4.530422E-11 -1.572144E-09  0.000000E+00  0.000000E+00  0.000000E+00  0.000000E+00  0.000000E+00  0.000000E+00  0.000000E+00  0.000000E+00  2.691487E-01 -1.297006E-02  7.943255E-03 -2.687187E-01                                                                                                                                                                                                                                                                                                                                                                                                                                                                                              
  8.000000E+02  1.250000E+02 -4.975000E+03  2.763184E-07 -1.324928E-08  7.672601E-09 -2.758939E-07  1.565825E-09 -7.512276E-11  4.350394E-11 -1.563417E-09  0.000000E+00  0.000000E+00  0.000000E+00  0.000000E+00  0.000000E+00  0.000000E+00  0.000000E+00  0.000000E+00  2.678841E-01 -1.317165E-02  7.627678E-03 -2.674513E-01                                                                                                                                                                                                                                                                                                                                                                                                                                                                                              
  9.350000E+02  1.250000E+02 -4.975000E+03  2.685550E-07 -1.226777E-08  5.396352E-09 -2.682204E-07  1.522103E-09 -6.955659E-11  3.059692E-11 -1.520205E-09  0.000000E+00  0.000000E+00  0.000000E+00  0.000000E+00  0.000000E+00  0.000000E+00  0.000000E+00  0.000000E+00  2.605918E-01 -1.219583E-02  5.364710E-03 -2.602510E-01                                                                                                                                                                                                                                                                                                                                                                                                                                                                                              
  1.185000E+03  1.250000E+02 -4.975000E+03  2.455031E-07 -9.771357E-09  2.852700E-09 -2.452920E-07  1.392083E-09 -5.540130E-11  1.617423E-11 -1.390886E-09  0.000000E+00  0.000000E+00  0.000000E+00  0.000000E+00  0.000000E+00  0.000000E+00  0.000000E+00  0.000000E+00  2.386651E-01 -9.714070E-03  2.835971E-03 -2.384505E-01                                                                                                                                                                                                                                                                                                                                                                                                                                                                                              
  1.435000E+03  1.250000E+02 -4.975000E+03  2.367414E-07 -4.182051E-09  2.242409E-09 -2.366939E-07  1.342579E-09 -2.371105E-11  1.271382E-11 -1.342309E-09  0.000000E+00  0.000000E+00  0.000000E+00  0.000000E+00  0.000000E+00  0.000000E+00  0.000000E+00  0.000000E+00  2.302607E-01 -4.157541E-03  2.229266E-03 -2.302123E-01                                                                                                                                                                                                                                                                                                                                                                                                                                                                                              
  1.250000E+02  1.250000E+02 -4.725000E+03  5.321168E-08 -1.511724E-08 -2.022179E-09 -5.097904E-08  3.044093E-10 -8.458774E-11 -1.131639E-11 -2.922018E-10  0.000000E+00  0.000000E+00  0.000000E+00  0.000000E+00  0.000000E+00  0.000000E+00  0.000000E+00  0.000000E+00  5.033094E-02 -1.428809E-02 -1.912645E-03 -4.822236E-02                                                                                                                                                                                                                                                                                                                                                                                                                                                                                              
  3.750000E+02  1.250000E+02 -4.725000E+03  1.253535E-07 -2.144425E-08 -6.808566E-10 -1.235038E-07  7.081336E-10 -1.199739E-10 -3.808469E-12 -6.978861E-10  0.000000E+00  0.000000E+00  0.000000E+00  0.000000E+00  0.000000E+00  0.000000E+00  0.000000E+00  0.000000E+00  1.184753E-01 -2.025194E-02 -6.423957E-04 -1.167298E-01                                                                                                                                                                                                                                                                                                                                                                                                                                                                                              
  6.250000E+02  1.250000E+02 -4.725000E+03  1.720879E-07 -5.581813E-09  1.519901E-08 -1.713245E-07  9.603986E-10 -3.121983E-11  8.496300E-11 -9.561235E-10  0.000000E+00  0.000000E+00  0.000000E+00  0.000000E+00  0.000000E+00  0.000000E+00  0.000000E+00  0.000000E+00  1.509911E-01 -5.261432E-03  1.432663E-02 -1.502178E-01                                                                                                                                                                                                                                                                                                                                                                                                                                                                                              
  7.600000E+02  1.250000E+02 -4.725000E+03  1.693779E-07  3.676777E-09  9.216293E-09 -1.690870E-07  9.446769E-10  2.055694E-11  5.152182E-11 -9.430469E-10  0.000000E+00  0.000000E+00  0.000000E+00  0.000000E+00  0.000000E+00  0.000000E+00  0.000000E+00  0.000000E+00  1.476480E-01  3.466031E-03  8.688216E-03 -1.473514E-01                                                                                                                                                                                                                                                                                                                                                                                                                                                                                              
  7.800000E+02  1.250000E+02 -4.725000E+03  1.706768E-07  8.485218E-09  8.082133E-09 -1.702740E-07  9.513029E-10  4.744832E-11  4.518168E-11 -9.490440E-10  0.000000E+00  0.000000E+00  0.000000E+00  0.000000E+00  0.000000E+00  0.000000E+00  0.000000E+00  0.000000E+00  1.478031E-01  7.999001E-03  7.618998E-03 -1.473897E-01                                                                                                                                                                                                                                                                                                                                                                                                                                                                                              
  8.000000E+02  1.250000E+02 -4.725000E+03  1.244020E-07  1.060367E-08  6.686193E-09 -1.237688E-07  7.028406E-10  5.930874E-11  3.738677E-11 -6.993351E-10  0.000000E+00  0.000000E+00  0.000000E+00  0.000000E+00  0.000000E+00  0.000000E+00  0.000000E+00  0.000000E+00  1.174806E-01  1.000449E-02  6.314233E-03 -1.168834E-01                                                                                                                                                                                                                                                                                                                                                                                                                                                                                              
  9.350000E+02  1.250000E+02 -4.725000E+03  1.029357E-07  1.814973E-08 -2.842216E-09 -1.012831E-07  5.844800E-10  1.015497E-10 -1.589848E-11 -5.753710E-10  0.000000E+00  0.000000E+00  0.000000E+00  0.000000E+00  0.000000E+00  0.000000E+00  0.000000E+00  0.000000E+00  9.729515E-02  1.715109E-02 -2.681981E-03 -9.573397E-02                                                                                                                                                                                                                                                                                                                                                                                                                                                                                              
  1.185000E+03  1.250000E+02 -4.725000E+03  2.979045E-08  1.543096E-08 -2.711255E-09 -2.533782E-08  1.722693E-10  8.634489E-11 -1.517237E-11 -1.482939E-10  0.000000E+00  0.000000E+00  0.000000E+00  0.000000E+00  0.000000E+00  0.000000E+00  0.000000E+00  0.000000E+00  2.817509E-02  1.458723E-02 -2.564463E-03 -2.396814E-02                                                                                                                                                                                                                                                                                                                                                                                                                                                                                              