Title="TOUGHREACT V3.30-OMP flowvector.tec: Liq & Gas Fluxes (kg/s/m^2), Pore Velocities (m/s), & Heat Fluxes (J/s/m2)"                                                                                                                                                                                                                                                                                                                                                                                                                                                                                                                                                                                                                                                                                                         
Variables= "X(m)"     "Y(m)"      "Z(m)"     "FluxLiq"   "FluxLiq_X"   "FluxLiq_Y"   "FluxLiq_Z"   "PorVelLiq"  "PorVelLiqX"  "PorVelLiqY"  "PorVelLiqZ"     "FluxGas"   "FluxGas_X"   "FluxGas_Y"   "FluxGas_Z"   "PorVelGas"  "PorVelGasX"  "PorVelGasY"  "PorVelGasZ"    "HeatFlux"  "HeatFlux_X"  "HeatFlux_Y"  "HeatFlux_Z"                                                                                                                                                                                                                                                                                                                                                                                                                                                                                                
Zone T= "1.00000000E+07 sec" I=     9 J=    10 K=    23 F=Point
  1.250000E+02  1.250000E+02 -5.425000E+03  3.635042E-07 -2.213094E-14 -1.231053E-14  3.635042E-07  2.132823E-09 -1.305149E-16 -7.260009E-17  2.132823E-09  0.000000E+00  0.000000E+00  0.000000E+00  0.000000E+00  0.000000E+00  0.000000E+00  0.000000E+00  0.000000E+00  3.924579E-01 -2.389371E-08 -1.329109E-08  3.924579E-01                                                                                                                                                                                                                                                                                                                                                                                                                                                                                              
  3.750000E+02  1.250000E+02 -5.425000E+03  3.635041E-07 -1.090913E-13 -8.659873E-14  3.635041E-07  2.132822E-09 -6.433548E-16 -5.107070E-16  2.132822E-09  0.000000E+00  0.000000E+00  0.000000E+00  0.000000E+00  0.000000E+00  0.000000E+00  0.000000E+00  0.000000E+00  3.924578E-01 -1.177807E-07 -9.349647E-08  3.924578E-01                                                                                                                                                                                                                                                                                                                                                                                                                                                                                              
  6.250000E+02  1.250000E+02 -5.425000E+03  3.635034E-07 -6.423724E-15 -4.441594E-13  3.635034E-07  2.132818E-09 -3.788325E-17 -2.619384E-15  2.132818E-09  0.000000E+00  0.000000E+00  0.000000E+00  0.000000E+00  0.000000E+00  0.000000E+00  0.000000E+00  0.000000E+00  3.924571E-01 -6.935385E-09 -4.795374E-07  3.924571E-01                                                                                                                                                                                                                                                                                                                                                                                                                                                                                              
  7.600000E+02  1.250000E+02 -5.425000E+03  3.635037E-07  1.629429E-13 -2.676385E-13  3.635037E-07  2.132820E-09  9.609387E-16 -1.578370E-15  2.132820E-09  0.000000E+00  0.000000E+00  0.000000E+00  0.000000E+00  0.000000E+00  0.000000E+00  0.000000E+00  0.000000E+00  3.924574E-01  1.759216E-07 -2.889563E-07  3.924574E-01                                                                                                                                                                                                                                                                                                                                                                                                                                                                                              
  7.800000E+02  1.250000E+02 -5.425000E+03  3.635038E-07  1.650425E-13 -2.417560E-13  3.635038E-07  2.132820E-09  9.733213E-16 -1.425731E-15  2.132820E-09  0.000000E+00  0.000000E+00  0.000000E+00  0.000000E+00  0.000000E+00  0.000000E+00  0.000000E+00  0.000000E+00  3.924575E-01  1.781885E-07 -2.610122E-07  3.924575E-01                                                                                                                                                                                                                                                                                                                                                                                                                                                                                              
  8.000000E+02  1.250000E+02 -5.425000E+03  3.635038E-07  1.644469E-13 -2.166474E-13  3.635038E-07  2.132821E-09  9.698085E-16 -1.277655E-15  2.132821E-09  0.000000E+00  0.000000E+00  0.000000E+00  0.000000E+00  0.000000E+00  0.000000E+00  0.000000E+00  0.000000E+00  3.924575E-01  1.775454E-07 -2.339037E-07  3.924575E-01                                                                                                                                                                                                                                                                                                                                                                                                                                                                                              
  9.350000E+02  1.250000E+02 -5.425000E+03  3.635041E-07  9.756109E-14 -5.433823E-14  3.635041E-07  2.132822E-09  5.753564E-16 -3.204541E-16  2.132822E-09  0.000000E+00  0.000000E+00  0.000000E+00  0.000000E+00  0.000000E+00  0.000000E+00  0.000000E+00  0.000000E+00  3.924579E-01  1.053320E-07 -5.866637E-08  3.924579E-01                                                                                                                                                                                                                                                                                                                                                                                                                                                                                              
  1.185000E+03  1.250000E+02 -5.425000E+03  3.635042E-07  1.699648E-14 -6.055895E-15  3.635042E-07  2.132823E-09  1.002350E-16 -3.571401E-17  2.132823E-09  0.000000E+00  0.000000E+00  0.000000E+00  0.000000E+00  0.000000E+00  0.000000E+00  0.000000E+00  0.000000E+00  3.924580E-01  1.835028E-08 -6.538258E-09  3.924580E-01                                                                                                                                                                                                                                                                                                                                                                                                                                                                                              
  1.435000E+03  1.250000E+02 -5.425000E+03  3.635042E-07  1.245952E-15 -2.015202E-16  3.635042E-07  2.132823E-09  7.347871E-18 -1.188445E-18  2.132823E-09  0.000000E+00  0.000000E+00  0.000000E+00  0.000000E+00  0.000000E+00  0.000000E+00  0.000000E+00  0.000000E+00  3.924580E-01  1.345194E-09 -2.175717E-10  3.924580E-01                                                                                                                                                                                                                                                                                                                                                                                                                                                                                              
  1.250000E+02  1.250000E+02 -5.225000E+03  8.102297E-07 -1.255580E-13 -6.663703E-14  8.102297E-07  4.724335E-09 -7.328492E-16 -3.889428E-16  4.724335E-09  0.000000E+00  0.000000E+00  0.000000E+00  0.000000E+00  0.000000E+00  0.000000E+00  0.000000E+00  0.000000E+00  8.572884E-01 -1.306467E-07 -6.933769E-08  8.572884E-01                                                                                                                                                                                                                                                                                                                                                                                                                                                                                              
  3.750000E+02  1.250000E+02 -5.225000E+03  8.102285E-07 -7.263140E-13 -5.924598E-13  8.102285E-07  4.724328E-09 -4.239303E-15 -3.458031E-15  4.724328E-09  0.000000E+00  0.000000E+00  0.000000E+00  0.000000E+00  0.000000E+00  0.000000E+00  0.000000E+00  0.000000E+00  8.572871E-01 -7.557500E-07 -6.164710E-07  8.572871E-01                                                                                                                                                                                                                                                                                                                                                                                                                                                                                              
  6.250000E+02  1.250000E+02 -5.225000E+03  8.102207E-07 -2.399450E-14 -3.890177E-12  8.102207E-07  4.724282E-09 -1.400496E-16 -2.270594E-14  4.724282E-09  0.000000E+00  0.000000E+00  0.000000E+00  0.000000E+00  0.000000E+00  0.000000E+00  0.000000E+00  0.000000E+00  8.572789E-01 -2.496695E-08 -4.047838E-06  8.572789E-01                                                                                                                                                                                                                                                                                                                                                                                                                                                                                              
  7.600000E+02  1.250000E+02 -5.225000E+03  8.102250E-07  1.146601E-12 -2.157880E-12  8.102250E-07  4.724307E-09  6.692409E-15 -1.259498E-14  4.724307E-09  0.000000E+00  0.000000E+00  0.000000E+00  0.000000E+00  0.000000E+00  0.000000E+00  0.000000E+00  0.000000E+00  8.572835E-01  1.193071E-06 -2.245335E-06  8.572835E-01                                                                                                                                                                                                                                                                                                                                                                                                                                                                                              
  7.800000E+02  1.250000E+02 -5.225000E+03  8.102257E-07  1.121886E-12 -1.915265E-12  8.102257E-07  4.724311E-09  6.548152E-15 -1.117890E-14  4.724311E-09  0.000000E+00  0.000000E+00  0.000000E+00  0.000000E+00  0.000000E+00  0.000000E+00  0.000000E+00  0.000000E+00  8.572841E-01  1.167354E-06 -1.992887E-06  8.572841E-01                                                                                                                                                                                                                                                                                                                                                                                                                                                                                              
  8.000000E+02  1.250000E+02 -5.225000E+03  8.102262E-07  1.079945E-12 -1.692153E-12  8.102262E-07  4.724314E-09  6.303352E-15 -9.876648E-15  4.724314E-09  0.000000E+00  0.000000E+00  0.000000E+00  0.000000E+00  0.000000E+00  0.000000E+00  0.000000E+00  0.000000E+00  8.572847E-01  1.123713E-06 -1.760732E-06  8.572847E-01                                                                                                                                                                                                                                                                                                                                                                                                                                                                                              
  9.350000E+02  1.250000E+02 -5.225000E+03  8.102296E-07  6.079492E-13 -3.324291E-13  8.102296E-07  4.724334E-09  3.548439E-15 -1.940301E-15  4.724334E-09  0.000000E+00  0.000000E+00  0.000000E+00  0.000000E+00  0.000000E+00  0.000000E+00  0.000000E+00  0.000000E+00  8.572882E-01  6.325882E-07 -3.459018E-07  8.572882E-01                                                                                                                                                                                                                                                                                                                                                                                                                                                                                              
  1.185000E+03  1.250000E+02 -5.225000E+03  8.102302E-07  8.674404E-14 -3.117452E-14  8.102302E-07  4.724337E-09  5.063021E-16 -1.819575E-16  4.724337E-09  0.000000E+00  0.000000E+00  0.000000E+00  0.000000E+00  0.000000E+00  0.000000E+00  0.000000E+00  0.000000E+00  8.572889E-01  9.025961E-08 -3.243796E-08  8.572889E-01                                                                                                                                                                                                                                                                                                                                                                                                                                                                                              
  1.435000E+03  1.250000E+02 -5.225000E+03  8.102303E-07  6.693312E-15 -4.279249E-15  8.102303E-07  4.724338E-09  3.906710E-17 -2.497685E-17  4.724338E-09  0.000000E+00  0.000000E+00  0.000000E+00  0.000000E+00  0.000000E+00  0.000000E+00  0.000000E+00  0.000000E+00  8.572889E-01  6.964578E-09 -4.452679E-09  8.572889E-01                                                                                                                                                                                                                                                                                                                                                                                                                                                                                              
  1.250000E+02  1.250000E+02 -4.975000E+03  8.815817E-07 -1.156733E-12 -6.321152E-13  8.815817E-07  5.084188E-09 -6.669635E-15 -3.644728E-15  5.084188E-09  0.000000E+00  0.000000E+00  0.000000E+00  0.000000E+00  0.000000E+00  0.000000E+00  0.000000E+00  0.000000E+00  8.961142E-01 -1.147231E-06 -6.269223E-07  8.961142E-01                                                                                                                                                                                                                                                                                                                                                                                                                                                                                              
  3.750000E+02  1.250000E+02 -4.975000E+03  8.815749E-07 -8.708832E-12 -7.291463E-12  8.815749E-07  5.084149E-09 -5.021446E-14 -4.204202E-14  5.084149E-09  0.000000E+00  0.000000E+00  0.000000E+00  0.000000E+00  0.000000E+00  0.000000E+00  0.000000E+00  0.000000E+00  8.961074E-01 -8.637288E-06 -7.231562E-06  8.961074E-01                                                                                                                                                                                                                                                                                                                                                                                                                                                                                              
  6.250000E+02  1.250000E+02 -4.975000E+03  8.815016E-07  2.087253E-13 -6.861736E-11  8.815016E-07  5.083728E-09  1.203494E-15 -3.956424E-13  5.083728E-09  0.000000E+00  0.000000E+00  0.000000E+00  0.000000E+00  0.000000E+00  0.000000E+00  0.000000E+00  0.000000E+00  8.960343E-01  2.070106E-07 -6.805366E-05  8.960343E-01                                                                                                                                                                                                                                                                                                                                                                                                                                                                                              
  7.600000E+02  1.250000E+02 -4.975000E+03  8.815477E-07  1.505290E-11 -3.321016E-11  8.815477E-07  5.083993E-09  8.679385E-14 -1.914872E-13  5.083993E-09  0.000000E+00  0.000000E+00  0.000000E+00  0.000000E+00  0.000000E+00  0.000000E+00  0.000000E+00  0.000000E+00  8.960802E-01  1.492924E-05 -3.293733E-05  8.960802E-01                                                                                                                                                                                                                                                                                                                                                                                                                                                                                              
  7.800000E+02  1.250000E+02 -4.975000E+03  8.815537E-07  1.394449E-11 -2.854988E-11  8.815537E-07  5.084027E-09  8.040286E-14 -1.646164E-13  5.084027E-09  0.000000E+00  0.000000E+00  0.000000E+00  0.000000E+00  0.000000E+00  0.000000E+00  0.000000E+00  0.000000E+00  8.960862E-01  1.382993E-05 -2.831534E-05  8.960862E-01                                                                                                                                                                                                                                                                                                                                                                                                                                                                                              
  8.000000E+02  1.250000E+02 -4.975000E+03  8.815585E-07  1.260177E-11 -2.464186E-11  8.815585E-07  5.084055E-09  7.266082E-14 -1.420831E-13  5.084055E-09  0.000000E+00  0.000000E+00  0.000000E+00  0.000000E+00  0.000000E+00  0.000000E+00  0.000000E+00  0.000000E+00  8.960910E-01  1.249824E-05 -2.443943E-05  8.960910E-01                                                                                                                                                                                                                                                                                                                                                                                                                                                                                              
  9.350000E+02  1.250000E+02 -4.975000E+03  8.815831E-07  6.601286E-12 -3.566211E-12  8.815831E-07  5.084197E-09  3.806251E-14 -2.056250E-14  5.084197E-09  0.000000E+00  0.000000E+00  0.000000E+00  0.000000E+00  0.000000E+00  0.000000E+00  0.000000E+00  0.000000E+00  8.961156E-01  6.547055E-06 -3.536914E-06  8.961156E-01                                                                                                                                                                                                                                                                                                                                                                                                                                                                                              
  1.185000E+03  1.250000E+02 -4.975000E+03  8.815863E-07  6.861495E-13 -2.738647E-13  8.815863E-07  5.084214E-09  3.956286E-15 -1.579083E-15  5.084214E-09  0.000000E+00  0.000000E+00  0.000000E+00  0.000000E+00  0.000000E+00  0.000000E+00  0.000000E+00  0.000000E+00  8.961187E-01  6.805127E-07 -2.716149E-07  8.961187E-01                                                                                                                                                                                                                                                                                                                                                                                                                                                                                              
  1.435000E+03  1.250000E+02 -4.975000E+03  8.815863E-07  3.421362E-14 -4.013050E-14  8.815863E-07  5.084214E-09  1.972731E-16 -2.313894E-16  5.084214E-09  0.000000E+00  0.000000E+00  0.000000E+00  0.000000E+00  0.000000E+00  0.000000E+00  0.000000E+00  0.000000E+00  8.961187E-01  3.393255E-08 -3.980082E-08  8.961187E-01                                                                                                                                                                                                                                                                                                                                                                                                                                                                                              
  1.250000E+02  1.250000E+02 -4.725000E+03  3.852570E-07 -6.661603E-12 -4.005800E-12  3.852570E-07  2.211106E-09 -3.796835E-14 -2.283138E-14  2.211106E-09  0.000000E+00  0.000000E+00  0.000000E+00  0.000000E+00  0.000000E+00  0.000000E+00  0.000000E+00  0.000000E+00  3.861715E-01 -6.283463E-06 -3.778414E-06  3.861715E-01                                                                                                                                                                                                                                                                                                                                                                                                                                                                                              
  3.750000E+02  1.250000E+02 -4.725000E+03  3.852683E-07 -7.775075E-11 -6.421039E-11  3.852682E-07  2.211170E-09 -4.431467E-13 -3.659723E-13  2.211170E-09  0.000000E+00  0.000000E+00  0.000000E+00  0.000000E+00  0.000000E+00  0.000000E+00  0.000000E+00  0.000000E+00  3.861813E-01 -7.333730E-05 -6.056554E-05  3.861813E-01                                                                                                                                                                                                                                                                                                                                                                                                                                                                                              
  6.250000E+02  1.250000E+02 -4.725000E+03  3.851327E-07  1.155465E-11 -1.134055E-09  3.851310E-07  2.210414E-09  6.585665E-14 -6.463630E-12  2.210405E-09  0.000000E+00  0.000000E+00  0.000000E+00  0.000000E+00  0.000000E+00  0.000000E+00  0.000000E+00  0.000000E+00  3.860754E-01  1.089876E-05 -1.069682E-03  3.860739E-01                                                                                                                                                                                                                                                                                                                                                                                                                                                                                              
  7.600000E+02  1.250000E+02 -4.725000E+03  3.852737E-07  1.556769E-10 -4.234199E-10  3.852734E-07  2.211204E-09  8.872930E-13 -2.413315E-12  2.211202E-09  0.000000E+00  0.000000E+00  0.000000E+00  0.000000E+00  0.000000E+00  0.000000E+00  0.000000E+00  0.000000E+00  3.861900E-01  1.468400E-04 -3.993849E-04  3.861898E-01                                                                                                                                                                                                                                                                                                                                                                                                                                                                                              
  7.800000E+02  1.250000E+02 -4.725000E+03  3.853183E-07  1.317704E-10 -3.308966E-10  3.853181E-07  2.211454E-09  7.510359E-13 -1.885971E-12  2.211453E-09  0.000000E+00  0.000000E+00  0.000000E+00  0.000000E+00  0.000000E+00  0.000000E+00  0.000000E+00  0.000000E+00  3.862261E-01  1.242905E-04 -3.121135E-04  3.862259E-01                                                                                                                                                                                                                                                                                                                                                                                                                                                                                              
  8.000000E+02  1.250000E+02 -4.725000E+03  3.853215E-07  1.030882E-10 -2.676328E-10  3.853214E-07  2.211472E-09  5.875596E-13 -1.525394E-12  2.211471E-09  0.000000E+00  0.000000E+00  0.000000E+00  0.000000E+00  0.000000E+00  0.000000E+00  0.000000E+00  0.000000E+00  3.862286E-01  9.723649E-05 -2.524409E-04  3.862285E-01                                                                                                                                                                                                                                                                                                                                                                                                                                                                                              
  9.350000E+02  1.250000E+02 -4.725000E+03  3.852914E-07  4.740294E-11 -2.491511E-11  3.852914E-07  2.211302E-09  2.701769E-13 -1.420057E-13  2.211302E-09  0.000000E+00  0.000000E+00  0.000000E+00  0.000000E+00  0.000000E+00  0.000000E+00  0.000000E+00  0.000000E+00  3.862030E-01  4.471215E-05 -2.350082E-05  3.862029E-01                                                                                                                                                                                                                                                                                                                                                                                                                                                                                              
  1.185000E+03  1.250000E+02 -4.725000E+03  3.852852E-07  3.070365E-12 -1.594090E-12  3.852852E-07  2.211267E-09  1.749979E-14 -9.085646E-15  2.211267E-09  0.000000E+00  0.000000E+00  0.000000E+00  0.000000E+00  0.000000E+00  0.000000E+00  0.000000E+00  0.000000E+00  3.861975E-01  2.896078E-06 -1.503603E-06  3.861975E-01                                                                                                                                                                                                                                                                                                                                                                                                                                                                                              