Title="TOUGHREACT V3.30-OMP flowvector.tec: Liq & Gas Fluxes (kg/s/m^2), Pore Velocities (m/s), & Heat Fluxes (J/s/m2)"                                                                                                                                                                                                                                                                                                                                                                                                                                                                                                                                                                                                                                                                                                         
Variables= "X(m)"     "Y(m)"      "Z(m)"     "FluxLiq"   "FluxLiq_X"   "FluxLiq_Y"   "FluxLiq_Z"   "PorVelLiq"  "PorVelLiqX"  "PorVelLiqY"  "PorVelLiqZ"     "FluxGas"   "FluxGas_X"   "FluxGas_Y"   "FluxGas_Z"   "PorVelGas"  "PorVelGasX"  "PorVelGasY"  "PorVelGasZ"    "HeatFlux"  "HeatFlux_X"  "HeatFlux_Y"  "HeatFlux_Z"                                                                                                                                                                                                                                                                                                                                                                                                                                                                                                
Zone T= "1.00000000E+09 sec" I=     9 J=    10 K=    23 F=Point
  1.250000E+02  1.250000E+02 -5.425000E+03  8.368547E-09 -6.259306E-10 -4.552422E-10 -8.332679E-09  4.768911E-11 -3.583659E-12 -2.606412E-12 -4.748279E-11  0.000000E+00  0.000000E+00  0.000000E+00  0.000000E+00  0.000000E+00  0.000000E+00  0.000000E+00  0.000000E+00  7.659889E-03 -5.943112E-04 -4.322452E-04 -7.624557E-03                                                                                                                                                                                                                                                                                                                                                                                                                                                                                              
  3.750000E+02  1.250000E+02 -5.425000E+03  8.575910E-09 -1.332958E-09 -3.974495E-10 -8.462358E-09  4.887480E-11 -7.631613E-12 -2.275526E-12 -4.822164E-11  0.000000E+00  0.000000E+00  0.000000E+00  0.000000E+00  0.000000E+00  0.000000E+00  0.000000E+00  0.000000E+00  7.855038E-03 -1.265622E-03 -3.773721E-04 -7.743217E-03                                                                                                                                                                                                                                                                                                                                                                                                                                                                                              
  6.250000E+02  1.250000E+02 -5.425000E+03  8.586535E-09 -1.017177E-09 -3.349861E-10 -8.519491E-09  4.893274E-11 -5.823659E-12 -1.917899E-12 -4.854709E-11  0.000000E+00  0.000000E+00  0.000000E+00  0.000000E+00  0.000000E+00  0.000000E+00  0.000000E+00  0.000000E+00  7.861533E-03 -9.657938E-04 -3.180642E-04 -7.795497E-03                                                                                                                                                                                                                                                                                                                                                                                                                                                                                              
  7.600000E+02  1.250000E+02 -5.425000E+03  8.529063E-09 -5.849446E-10 -3.400521E-10 -8.502183E-09  4.860306E-11 -3.348990E-12 -1.946903E-12 -4.844844E-11  0.000000E+00  0.000000E+00  0.000000E+00  0.000000E+00  0.000000E+00  0.000000E+00  0.000000E+00  0.000000E+00  7.806141E-03 -5.553959E-04 -3.228743E-04 -7.779661E-03                                                                                                                                                                                                                                                                                                                                                                                                                                                                                              
  7.800000E+02  1.250000E+02 -5.425000E+03  8.521597E-09 -5.138952E-10 -3.413774E-10 -8.499234E-09  4.856027E-11 -2.942210E-12 -1.954490E-12 -4.843163E-11  0.000000E+00  0.000000E+00  0.000000E+00  0.000000E+00  0.000000E+00  0.000000E+00  0.000000E+00  0.000000E+00  7.798993E-03 -4.879356E-04 -3.241327E-04 -7.776963E-03                                                                                                                                                                                                                                                                                                                                                                                                                                                                                              
  8.000000E+02  1.250000E+02 -5.425000E+03  8.514359E-09 -4.423607E-10 -3.432912E-10 -8.495927E-09  4.851881E-11 -2.532652E-12 -1.965447E-12 -4.841278E-11  0.000000E+00  0.000000E+00  0.000000E+00  0.000000E+00  0.000000E+00  0.000000E+00  0.000000E+00  0.000000E+00  7.792095E-03 -4.200147E-04 -3.259498E-04 -7.773936E-03                                                                                                                                                                                                                                                                                                                                                                                                                                                                                              
  9.350000E+02  1.250000E+02 -5.425000E+03  8.479084E-09  3.770842E-11 -3.602502E-10 -8.471344E-09  4.831721E-11  2.158924E-13 -2.062542E-12 -4.827268E-11  0.000000E+00  0.000000E+00  0.000000E+00  0.000000E+00  0.000000E+00  0.000000E+00  0.000000E+00  0.000000E+00  7.759069E-03  3.580357E-05 -3.420521E-04 -7.751443E-03                                                                                                                                                                                                                                                                                                                                                                                                                                                                                              
  1.185000E+03  1.250000E+02 -5.425000E+03  8.431486E-09  5.853871E-10 -4.919347E-10 -8.396742E-09  4.804748E-11  3.351525E-12 -2.816477E-12 -4.784763E-11  0.000000E+00  0.000000E+00  0.000000E+00  0.000000E+00  0.000000E+00  0.000000E+00  0.000000E+00  0.000000E+00  7.717407E-03  5.558161E-04 -4.670845E-04 -7.683181E-03                                                                                                                                                                                                                                                                                                                                                                                                                                                                                              
  1.435000E+03  1.250000E+02 -5.425000E+03  8.302229E-09  3.444185E-10 -6.141456E-10 -8.272316E-09  4.731074E-11  1.971904E-12 -3.516174E-12 -4.713867E-11  0.000000E+00  0.000000E+00  0.000000E+00  0.000000E+00  0.000000E+00  0.000000E+00  0.000000E+00  0.000000E+00  7.598796E-03  3.270201E-04 -5.831218E-04 -7.569328E-03                                                                                                                                                                                                                                                                                                                                                                                                                                                                                              
  1.250000E+02  1.250000E+02 -5.225000E+03  4.417936E-08 -7.150670E-10 -5.266348E-10 -4.417043E-08  2.498002E-10 -4.058485E-12 -2.989007E-12 -2.497493E-10  0.000000E+00  0.000000E+00  0.000000E+00  0.000000E+00  0.000000E+00  0.000000E+00  0.000000E+00  0.000000E+00  3.892645E-02 -6.542998E-04 -4.818808E-04 -3.891797E-02                                                                                                                                                                                                                                                                                                                                                                                                                                                                                              
  3.750000E+02  1.250000E+02 -5.225000E+03  4.476158E-08 -1.451058E-09 -3.995756E-10 -4.473627E-08  2.530932E-10 -8.235716E-12 -2.267856E-12 -2.529490E-10  0.000000E+00  0.000000E+00  0.000000E+00  0.000000E+00  0.000000E+00  0.000000E+00  0.000000E+00  0.000000E+00  3.944153E-02 -1.327745E-03 -3.656193E-04 -3.941748E-02                                                                                                                                                                                                                                                                                                                                                                                                                                                                                              
  6.250000E+02  1.250000E+02 -5.225000E+03  4.490513E-08 -1.013013E-09 -2.400753E-10 -4.489306E-08  2.539051E-10 -5.749512E-12 -1.362584E-12 -2.538363E-10  0.000000E+00  0.000000E+00  0.000000E+00  0.000000E+00  0.000000E+00  0.000000E+00  0.000000E+00  0.000000E+00  3.956824E-02 -9.269261E-04 -2.196735E-04 -3.955678E-02                                                                                                                                                                                                                                                                                                                                                                                                                                                                                              
  7.600000E+02  1.250000E+02 -5.225000E+03  4.480812E-08 -5.156735E-10 -2.207261E-10 -4.480461E-08  2.533561E-10 -2.926784E-12 -1.252764E-12 -2.533361E-10  0.000000E+00  0.000000E+00  0.000000E+00  0.000000E+00  0.000000E+00  0.000000E+00  0.000000E+00  0.000000E+00  3.948216E-02 -4.718512E-04 -2.019686E-04 -3.947882E-02                                                                                                                                                                                                                                                                                                                                                                                                                                                                                              
  7.800000E+02  1.250000E+02 -5.225000E+03  4.479332E-08 -4.388647E-10 -2.189732E-10 -4.479064E-08  2.532724E-10 -2.490844E-12 -1.242815E-12 -2.532571E-10  0.000000E+00  0.000000E+00  0.000000E+00  0.000000E+00  0.000000E+00  0.000000E+00  0.000000E+00  0.000000E+00  3.946905E-02 -4.015697E-04 -2.003647E-04 -3.946649E-02                                                                                                                                                                                                                                                                                                                                                                                                                                                                                              
  8.000000E+02  1.250000E+02 -5.225000E+03  4.477796E-08 -3.620891E-10 -2.183762E-10 -4.477596E-08  2.531854E-10 -2.055092E-12 -1.239426E-12 -2.531741E-10  0.000000E+00  0.000000E+00  0.000000E+00  0.000000E+00  0.000000E+00  0.000000E+00  0.000000E+00  0.000000E+00  3.945544E-02 -3.313185E-04 -1.998184E-04 -3.945354E-02                                                                                                                                                                                                                                                                                                                                                                                                                                                                                              
  9.350000E+02  1.250000E+02 -5.225000E+03  4.467373E-08  1.331880E-10 -2.223866E-10 -4.467298E-08  2.525958E-10  7.559290E-13 -1.262188E-12 -2.525915E-10  0.000000E+00  0.000000E+00  0.000000E+00  0.000000E+00  0.000000E+00  0.000000E+00  0.000000E+00  0.000000E+00  3.936330E-02  1.218696E-04 -2.034880E-04 -3.936259E-02                                                                                                                                                                                                                                                                                                                                                                                                                                                                                              
  1.185000E+03  1.250000E+02 -5.225000E+03  4.447711E-08  7.311105E-10 -4.450286E-10 -4.446888E-08  2.514828E-10  4.149531E-12 -2.525826E-12 -2.514359E-10  0.000000E+00  0.000000E+00  0.000000E+00  0.000000E+00  0.000000E+00  0.000000E+00  0.000000E+00  0.000000E+00  3.918909E-02  6.689802E-04 -4.072098E-04 -3.918127E-02                                                                                                                                                                                                                                                                                                                                                                                                                                                                                              
  1.435000E+03  1.250000E+02 -5.225000E+03  4.393169E-08  4.360465E-10 -6.638915E-10 -4.392451E-08  2.483983E-10  2.474851E-12 -3.768018E-12 -2.483574E-10  0.000000E+00  0.000000E+00  0.000000E+00  0.000000E+00  0.000000E+00  0.000000E+00  0.000000E+00  0.000000E+00  3.870755E-02  3.989910E-04 -6.074737E-04 -3.870073E-02                                                                                                                                                                                                                                                                                                                                                                                                                                                                                              
  1.250000E+02  1.250000E+02 -4.975000E+03  1.253840E-07 -1.130189E-09 -8.627877E-10 -1.253759E-07  7.025266E-10 -6.348929E-12 -4.846785E-12 -7.024811E-10  0.000000E+00  0.000000E+00  0.000000E+00  0.000000E+00  0.000000E+00  0.000000E+00  0.000000E+00  0.000000E+00  1.057490E-01 -9.868774E-04 -7.533836E-04 -1.057417E-01                                                                                                                                                                                                                                                                                                                                                                                                                                                                                              
  3.750000E+02  1.250000E+02 -4.975000E+03  1.271998E-07 -1.942746E-09 -3.739975E-10 -1.271844E-07  7.126898E-10 -1.091352E-11 -2.100958E-12 -7.126032E-10  0.000000E+00  0.000000E+00  0.000000E+00  0.000000E+00  0.000000E+00  0.000000E+00  0.000000E+00  0.000000E+00  1.072754E-01 -1.696400E-03 -3.265733E-04 -1.072615E-01                                                                                                                                                                                                                                                                                                                                                                                                                                                                                              
  6.250000E+02  1.250000E+02 -4.975000E+03  1.272670E-07 -9.485296E-10  3.256044E-10 -1.272631E-07  7.130661E-10 -5.328426E-12  1.829103E-12 -7.130438E-10  0.000000E+00  0.000000E+00  0.000000E+00  0.000000E+00  0.000000E+00  0.000000E+00  0.000000E+00  0.000000E+00  1.073313E-01 -8.282529E-04  2.843167E-04 -1.073277E-01                                                                                                                                                                                                                                                                                                                                                                                                                                                                                              
  7.600000E+02  1.250000E+02 -4.975000E+03  1.269563E-07 -2.286959E-10  4.880782E-10 -1.269552E-07  7.113259E-10 -1.284714E-12  2.741810E-12 -7.113194E-10  0.000000E+00  0.000000E+00  0.000000E+00  0.000000E+00  0.000000E+00  0.000000E+00  0.000000E+00  0.000000E+00  1.070695E-01 -1.996965E-04  4.261883E-04 -1.070685E-01                                                                                                                                                                                                                                                                                                                                                                                                                                                                                              
  7.800000E+02  1.250000E+02 -4.975000E+03  1.269109E-07 -1.439219E-10  5.080712E-10 -1.269098E-07  7.110712E-10 -8.084904E-13  2.854121E-12 -7.110651E-10  0.000000E+00  0.000000E+00  0.000000E+00  0.000000E+00  0.000000E+00  0.000000E+00  0.000000E+00  0.000000E+00  1.070306E-01 -1.256722E-04  4.436460E-04 -1.070296E-01                                                                                                                                                                                                                                                                                                                                                                                                                                                                                              
  8.000000E+02  1.250000E+02 -4.975000E+03  1.268720E-07 -6.221854E-11  5.236725E-10 -1.268709E-07  7.108533E-10 -3.495165E-13  2.941763E-12 -7.108471E-10  0.000000E+00  0.000000E+00  0.000000E+00  0.000000E+00  0.000000E+00  0.000000E+00  0.000000E+00  0.000000E+00  1.069979E-01 -5.432902E-05  4.572691E-04 -1.069969E-01                                                                                                                                                                                                                                                                                                                                                                                                                                                                                              
  9.350000E+02  1.250000E+02 -4.975000E+03  1.266607E-07  4.044809E-10  5.974420E-10 -1.266586E-07  7.096688E-10  2.272197E-12  3.356168E-12 -7.096573E-10  0.000000E+00  0.000000E+00  0.000000E+00  0.000000E+00  0.000000E+00  0.000000E+00  0.000000E+00  0.000000E+00  1.068193E-01  3.531914E-04  5.216844E-04 -1.068175E-01                                                                                                                                                                                                                                                                                                                                                                                                                                                                                              
  1.185000E+03  1.250000E+02 -4.975000E+03  1.266869E-07  1.259175E-09 -1.707291E-10 -1.266805E-07  7.098113E-10  7.073504E-12 -9.590822E-13 -7.097754E-10  0.000000E+00  0.000000E+00  0.000000E+00  0.000000E+00  0.000000E+00  0.000000E+00  0.000000E+00  0.000000E+00  1.068396E-01  1.099508E-03 -1.490801E-04 -1.068338E-01                                                                                                                                                                                                                                                                                                                                                                                                                                                                                              
  1.435000E+03  1.250000E+02 -4.975000E+03  1.248718E-07  8.436739E-10 -9.224486E-10 -1.248656E-07  6.996533E-10  4.739399E-12 -5.181921E-12 -6.996181E-10  0.000000E+00  0.000000E+00  0.000000E+00  0.000000E+00  0.000000E+00  0.000000E+00  0.000000E+00  0.000000E+00  1.053153E-01  7.366936E-04 -8.054797E-04 -1.053096E-01                                                                                                                                                                                                                                                                                                                                                                                                                                                                                              
  1.250000E+02  1.250000E+02 -4.725000E+03  2.675401E-07 -2.462383E-09 -1.945782E-09 -2.675217E-07  1.481318E-09 -1.369407E-11 -1.082113E-11 -1.481215E-09  0.000000E+00  0.000000E+00  0.000000E+00  0.000000E+00  0.000000E+00  0.000000E+00  0.000000E+00  0.000000E+00  2.092877E-01 -2.047338E-03 -1.617831E-03 -2.092714E-01                                                                                                                                                                                                                                                                                                                                                                                                                                                                                              
  3.750000E+02  1.250000E+02 -4.725000E+03  2.753181E-07 -3.216584E-09 -1.710782E-10 -2.752993E-07  1.515962E-09 -1.788837E-11 -9.514097E-13 -1.515856E-09  0.000000E+00  0.000000E+00  0.000000E+00  0.000000E+00  0.000000E+00  0.000000E+00  0.000000E+00  0.000000E+00  2.013102E-01 -2.674389E-03 -1.422355E-04 -2.012924E-01                                                                                                                                                                                                                                                                                                                                                                                                                                                                                              
  6.250000E+02  1.250000E+02 -4.725000E+03  2.763757E-07 -4.440029E-10  2.764091E-09 -2.763615E-07  1.512700E-09 -2.469219E-12  1.537165E-11 -1.512620E-09  0.000000E+00  0.000000E+00  0.000000E+00  0.000000E+00  0.000000E+00  0.000000E+00  0.000000E+00  0.000000E+00  1.853831E-01 -3.691484E-04  2.298093E-03 -1.853685E-01                                                                                                                                                                                                                                                                                                                                                                                                                                                                                              
  7.600000E+02  1.250000E+02 -4.725000E+03  2.759941E-07  6.760932E-10  3.551731E-09 -2.759704E-07  1.509955E-09  3.759901E-12  1.975187E-11 -1.509821E-09  0.000000E+00  0.000000E+00  0.000000E+00  0.000000E+00  0.000000E+00  0.000000E+00  0.000000E+00  0.000000E+00  1.838552E-01  5.621096E-04  2.952935E-03 -1.838307E-01                                                                                                                                                                                                                                                                                                                                                                                                                                                                                              
  7.800000E+02  1.250000E+02 -4.725000E+03  2.746241E-07  6.558174E-10  3.667006E-09 -2.745989E-07  1.500420E-09  3.647140E-12  2.039291E-11 -1.500276E-09  0.000000E+00  0.000000E+00  0.000000E+00  0.000000E+00  0.000000E+00  0.000000E+00  0.000000E+00  0.000000E+00  1.788542E-01  5.452489E-04  3.048745E-03 -1.788274E-01                                                                                                                                                                                                                                                                                                                                                                                                                                                                                              
  8.000000E+02  1.250000E+02 -4.725000E+03  2.748818E-07  5.267277E-10  3.765412E-09 -2.748555E-07  1.502114E-09  2.929245E-12  2.094016E-11 -1.501965E-09  0.000000E+00  0.000000E+00  0.000000E+00  0.000000E+00  0.000000E+00  0.000000E+00  0.000000E+00  0.000000E+00  1.796111E-01  4.379214E-04  3.130568E-03 -1.795833E-01                                                                                                                                                                                                                                                                                                                                                                                                                                                                                              
  9.350000E+02  1.250000E+02 -4.725000E+03  2.755349E-07  4.761852E-10  4.188789E-09 -2.755027E-07  1.506303E-09  2.648176E-12  2.329466E-11 -1.506121E-09  0.000000E+00  0.000000E+00  0.000000E+00  0.000000E+00  0.000000E+00  0.000000E+00  0.000000E+00  0.000000E+00  1.813113E-01  3.959017E-04  3.482576E-03 -1.812774E-01                                                                                                                                                                                                                                                                                                                                                                                                                                                                                              
  1.185000E+03  1.250000E+02 -4.725000E+03  2.755680E-07  2.447307E-09  8.417419E-10 -2.755558E-07  1.516201E-09  1.361021E-11  4.681138E-12 -1.516133E-09  0.000000E+00  0.000000E+00  0.000000E+00  0.000000E+00  0.000000E+00  0.000000E+00  0.000000E+00  0.000000E+00  1.995206E-01  2.034788E-03  6.998608E-04 -1.995090E-01                                                                                                                                                                                                                                                                                                                                                                                                                                                                                              