Title="TOUGHREACT V3.30-OMP flowvector.tec: Liq & Gas Fluxes (kg/s/m^2), Pore Velocities (m/s), & Heat Fluxes (J/s/m2)"                                                                                                                                                                                                                                                                                                                                                                                                                                                                                                                                                                                                                                                                                                         
Variables= "X(m)"     "Y(m)"      "Z(m)"     "FluxLiq"   "FluxLiq_X"   "FluxLiq_Y"   "FluxLiq_Z"   "PorVelLiq"  "PorVelLiqX"  "PorVelLiqY"  "PorVelLiqZ"     "FluxGas"   "FluxGas_X"   "FluxGas_Y"   "FluxGas_Z"   "PorVelGas"  "PorVelGasX"  "PorVelGasY"  "PorVelGasZ"    "HeatFlux"  "HeatFlux_X"  "HeatFlux_Y"  "HeatFlux_Z"                                                                                                                                                                                                                                                                                                                                                                                                                                                                                                
Zone T= "3.15569000E+08 sec" I=     9 J=    10 K=    23 F=Point
  1.250000E+02  1.250000E+02 -5.425000E+03  1.647289E-07 -6.149569E-12  1.442052E-11  1.647288E-07  9.357131E-10 -3.506734E-14  8.223166E-14  9.357131E-10  0.000000E+00  0.000000E+00  0.000000E+00  0.000000E+00  0.000000E+00  0.000000E+00  0.000000E+00  0.000000E+00  1.564215E-01 -5.839443E-06  1.369328E-05  1.564215E-01                                                                                                                                                                                                                                                                                                                                                                                                                                                                                              
  3.750000E+02  1.250000E+02 -5.425000E+03  1.647235E-07 -1.885989E-11  1.124040E-11  1.647235E-07  9.356825E-10 -1.075468E-13  6.409733E-14  9.356825E-10  0.000000E+00  0.000000E+00  0.000000E+00  0.000000E+00  0.000000E+00  0.000000E+00  0.000000E+00  0.000000E+00  1.564164E-01 -1.790878E-05  1.067354E-05  1.564164E-01                                                                                                                                                                                                                                                                                                                                                                                                                                                                                              
  6.250000E+02  1.250000E+02 -5.425000E+03  1.647119E-07 -2.185091E-11  1.491359E-12  1.647119E-07  9.356169E-10 -1.246028E-13  8.504336E-15  9.356169E-10  0.000000E+00  0.000000E+00  0.000000E+00  0.000000E+00  0.000000E+00  0.000000E+00  0.000000E+00  0.000000E+00  1.564054E-01 -2.074896E-05  1.416149E-06  1.564054E-01                                                                                                                                                                                                                                                                                                                                                                                                                                                                                              
  7.600000E+02  1.250000E+02 -5.425000E+03  1.647100E-07 -1.763813E-11 -2.933773E-12  1.647100E-07  9.356060E-10 -1.005798E-13 -1.672956E-14  9.356060E-10  0.000000E+00  0.000000E+00  0.000000E+00  0.000000E+00  0.000000E+00  0.000000E+00  0.000000E+00  0.000000E+00  1.564036E-01 -1.674863E-05 -2.785821E-06  1.564036E-01                                                                                                                                                                                                                                                                                                                                                                                                                                                                                              
  7.800000E+02  1.250000E+02 -5.425000E+03  1.647098E-07 -1.631034E-11 -3.534534E-12  1.647098E-07  9.356051E-10 -9.300817E-14 -2.015535E-14  9.356051E-10  0.000000E+00  0.000000E+00  0.000000E+00  0.000000E+00  0.000000E+00  0.000000E+00  0.000000E+00  0.000000E+00  1.564035E-01 -1.548780E-05 -3.356285E-06  1.564035E-01                                                                                                                                                                                                                                                                                                                                                                                                                                                                                              
  8.000000E+02  1.250000E+02 -5.425000E+03  1.647098E-07 -1.491121E-11 -4.075644E-12  1.647098E-07  9.356048E-10 -8.502979E-14 -2.324098E-14  9.356048E-10  0.000000E+00  0.000000E+00  0.000000E+00  0.000000E+00  0.000000E+00  0.000000E+00  0.000000E+00  0.000000E+00  1.564034E-01 -1.415923E-05 -3.870107E-06  1.564034E-01                                                                                                                                                                                                                                                                                                                                                                                                                                                                                              
  9.350000E+02  1.250000E+02 -5.425000E+03  1.647103E-07 -3.782691E-12 -7.305960E-12  1.647103E-07  9.356074E-10 -2.157044E-14 -4.166155E-14  9.356074E-10  0.000000E+00  0.000000E+00  0.000000E+00  0.000000E+00  0.000000E+00  0.000000E+00  0.000000E+00  0.000000E+00  1.564038E-01 -3.591928E-06 -6.937517E-06  1.564038E-01                                                                                                                                                                                                                                                                                                                                                                                                                                                                                              
  1.185000E+03  1.250000E+02 -5.425000E+03  1.647222E-07  6.528388E-12 -2.481285E-12  1.647222E-07  9.356755E-10  3.722752E-14 -1.414930E-14  9.356755E-10  0.000000E+00  0.000000E+00  0.000000E+00  0.000000E+00  0.000000E+00  0.000000E+00  0.000000E+00  0.000000E+00  1.564152E-01  6.199158E-06 -2.356153E-06  1.564152E-01                                                                                                                                                                                                                                                                                                                                                                                                                                                                                              
  1.435000E+03  1.250000E+02 -5.425000E+03  1.647286E-07  3.212662E-12  8.567206E-13  1.647286E-07  9.357114E-10  1.831990E-14  4.885370E-15  9.357114E-10  0.000000E+00  0.000000E+00  0.000000E+00  0.000000E+00  0.000000E+00  0.000000E+00  0.000000E+00  0.000000E+00  1.564212E-01  3.050646E-06  8.135158E-07  1.564212E-01                                                                                                                                                                                                                                                                                                                                                                                                                                                                                              
  1.250000E+02  1.250000E+02 -5.225000E+03  5.869164E-07 -1.019180E-11  1.181371E-11  5.869164E-07  3.312809E-09 -5.764794E-14  6.682195E-14  3.312809E-09  0.000000E+00  0.000000E+00  0.000000E+00  0.000000E+00  0.000000E+00  0.000000E+00  0.000000E+00  0.000000E+00  5.429874E-01 -9.331878E-06  1.081694E-05  5.429874E-01                                                                                                                                                                                                                                                                                                                                                                                                                                                                                              
  3.750000E+02  1.250000E+02 -5.225000E+03  5.868961E-07 -3.160073E-11  3.090625E-12  5.868960E-07  3.312694E-09 -1.787434E-13  1.748152E-14  3.312694E-09  0.000000E+00  0.000000E+00  0.000000E+00  0.000000E+00  0.000000E+00  0.000000E+00  0.000000E+00  0.000000E+00  5.429685E-01 -2.893445E-05  2.829856E-06  5.429685E-01                                                                                                                                                                                                                                                                                                                                                                                                                                                                                              
  6.250000E+02  1.250000E+02 -5.225000E+03  5.868442E-07 -3.308913E-11 -2.152997E-11  5.868442E-07  3.312402E-09 -1.871622E-13 -1.217800E-13  3.312402E-09  0.000000E+00  0.000000E+00  0.000000E+00  0.000000E+00  0.000000E+00  0.000000E+00  0.000000E+00  0.000000E+00  5.429207E-01 -3.029726E-05 -1.971339E-05  5.429207E-01                                                                                                                                                                                                                                                                                                                                                                                                                                                                                              
  7.600000E+02  1.250000E+02 -5.225000E+03  5.868317E-07 -2.161468E-11 -2.976246E-11  5.868317E-07  3.312331E-09 -1.222592E-13 -1.683455E-13  3.312331E-09  0.000000E+00  0.000000E+00  0.000000E+00  0.000000E+00  0.000000E+00  0.000000E+00  0.000000E+00  0.000000E+00  5.429092E-01 -1.979096E-05 -2.725128E-05  5.429092E-01                                                                                                                                                                                                                                                                                                                                                                                                                                                                                              
  7.800000E+02  1.250000E+02 -5.225000E+03  5.868308E-07 -1.804208E-11 -3.071732E-11  5.868308E-07  3.312326E-09 -1.020515E-13 -1.737465E-13  3.312326E-09  0.000000E+00  0.000000E+00  0.000000E+00  0.000000E+00  0.000000E+00  0.000000E+00  0.000000E+00  0.000000E+00  5.429084E-01 -1.651980E-05 -2.812558E-05  5.429084E-01                                                                                                                                                                                                                                                                                                                                                                                                                                                                                              
  8.000000E+02  1.250000E+02 -5.225000E+03  5.868310E-07 -1.437415E-11 -3.139256E-11  5.868310E-07  3.312327E-09 -8.130457E-14 -1.775658E-13  3.312327E-09  0.000000E+00  0.000000E+00  0.000000E+00  0.000000E+00  0.000000E+00  0.000000E+00  0.000000E+00  0.000000E+00  5.429085E-01 -1.316134E-05 -2.874384E-05  5.429085E-01                                                                                                                                                                                                                                                                                                                                                                                                                                                                                              
  9.350000E+02  1.250000E+02 -5.225000E+03  5.868386E-07  6.307390E-12 -3.407102E-11  5.868386E-07  3.312370E-09  3.567651E-14 -1.927161E-13  3.312370E-09  0.000000E+00  0.000000E+00  0.000000E+00  0.000000E+00  0.000000E+00  0.000000E+00  0.000000E+00  0.000000E+00  5.429155E-01  5.775209E-06 -3.119631E-05  5.429155E-01                                                                                                                                                                                                                                                                                                                                                                                                                                                                                              
  1.185000E+03  1.250000E+02 -5.225000E+03  5.868937E-07  2.062902E-11 -1.356696E-11  5.868937E-07  3.312681E-09  1.166840E-13 -7.673884E-14  3.312681E-09  0.000000E+00  0.000000E+00  0.000000E+00  0.000000E+00  0.000000E+00  0.000000E+00  0.000000E+00  0.000000E+00  5.429664E-01  1.888846E-05 -1.242226E-05  5.429664E-01                                                                                                                                                                                                                                                                                                                                                                                                                                                                                              
  1.435000E+03  1.250000E+02 -5.225000E+03  5.869177E-07  8.055079E-12 -3.186686E-12  5.869177E-07  3.312816E-09  4.556198E-14 -1.802487E-14  3.312816E-09  0.000000E+00  0.000000E+00  0.000000E+00  0.000000E+00  0.000000E+00  0.000000E+00  0.000000E+00  0.000000E+00  5.429885E-01  7.375439E-06 -2.917813E-06  5.429885E-01                                                                                                                                                                                                                                                                                                                                                                                                                                                                                              
  1.250000E+02  1.250000E+02 -4.975000E+03  1.058469E-06 -2.436721E-11  5.098698E-13  1.058469E-06  5.928663E-09 -1.366073E-13  2.858430E-15  5.928663E-09  0.000000E+00  0.000000E+00  0.000000E+00  0.000000E+00  0.000000E+00  0.000000E+00  0.000000E+00  0.000000E+00  9.423620E-01 -2.128490E-05  4.453744E-07  9.423620E-01                                                                                                                                                                                                                                                                                                                                                                                                                                                                                              
  3.750000E+02  1.250000E+02 -4.975000E+03  1.058443E-06 -8.398265E-11 -3.607368E-11  1.058443E-06  5.928515E-09 -4.708231E-13 -2.022361E-13  5.928515E-09  0.000000E+00  0.000000E+00  0.000000E+00  0.000000E+00  0.000000E+00  0.000000E+00  0.000000E+00  0.000000E+00  9.423382E-01 -7.335936E-05 -3.151058E-05  9.423382E-01                                                                                                                                                                                                                                                                                                                                                                                                                                                                                              
  6.250000E+02  1.250000E+02 -4.975000E+03  1.058320E-06 -8.982866E-11 -1.535878E-10  1.058320E-06  5.927826E-09 -5.035969E-13 -8.610430E-13  5.927826E-09  0.000000E+00  0.000000E+00  0.000000E+00  0.000000E+00  0.000000E+00  0.000000E+00  0.000000E+00  0.000000E+00  9.422293E-01 -7.846588E-05 -1.341599E-04  9.422293E-01                                                                                                                                                                                                                                                                                                                                                                                                                                                                                              
  7.600000E+02  1.250000E+02 -4.975000E+03  1.058209E-06 -4.844504E-11 -2.012920E-10  1.058209E-06  5.927202E-09 -2.715923E-13 -1.128482E-12  5.927202E-09  0.000000E+00  0.000000E+00  0.000000E+00  0.000000E+00  0.000000E+00  0.000000E+00  0.000000E+00  0.000000E+00  9.421313E-01 -4.231704E-05 -1.758298E-04  9.421313E-01                                                                                                                                                                                                                                                                                                                                                                                                                                                                                              
  7.800000E+02  1.250000E+02 -4.975000E+03  1.058200E-06 -2.374163E-11 -2.049277E-10  1.058200E-06  5.927155E-09 -1.331002E-13 -1.148864E-12  5.927155E-09  0.000000E+00  0.000000E+00  0.000000E+00  0.000000E+00  0.000000E+00  0.000000E+00  0.000000E+00  0.000000E+00  9.421239E-01 -2.073846E-05 -1.790056E-04  9.421239E-01                                                                                                                                                                                                                                                                                                                                                                                                                                                                                              
  8.000000E+02  1.250000E+02 -4.975000E+03  1.058207E-06  1.191670E-12 -2.050050E-10  1.058207E-06  5.927194E-09  6.680736E-15 -1.149297E-12  5.927193E-09  0.000000E+00  0.000000E+00  0.000000E+00  0.000000E+00  0.000000E+00  0.000000E+00  0.000000E+00  0.000000E+00  9.421299E-01  1.040931E-06 -1.790732E-04  9.421299E-01                                                                                                                                                                                                                                                                                                                                                                                                                                                                                              
  9.350000E+02  1.250000E+02 -4.975000E+03  1.058312E-06  6.051104E-11 -1.818512E-10  1.058312E-06  5.927782E-09  3.392367E-13 -1.019493E-12  5.927782E-09  0.000000E+00  0.000000E+00  0.000000E+00  0.000000E+00  0.000000E+00  0.000000E+00  0.000000E+00  0.000000E+00  9.422223E-01  5.285677E-05 -1.588481E-04  9.422223E-01                                                                                                                                                                                                                                                                                                                                                                                                                                                                                              
  1.185000E+03  1.250000E+02 -4.975000E+03  1.058449E-06  7.863531E-11 -6.150762E-11  1.058449E-06  5.928545E-09  4.408448E-13 -3.448237E-13  5.928545E-09  0.000000E+00  0.000000E+00  0.000000E+00  0.000000E+00  0.000000E+00  0.000000E+00  0.000000E+00  0.000000E+00  9.423431E-01  6.868842E-05 -5.372728E-05  9.423431E-01                                                                                                                                                                                                                                                                                                                                                                                                                                                                                              
  1.435000E+03  1.250000E+02 -4.975000E+03  1.058481E-06  2.482575E-11 -1.739670E-11  1.058481E-06  5.928725E-09  1.391780E-13 -9.752931E-14  5.928725E-09  0.000000E+00  0.000000E+00  0.000000E+00  0.000000E+00  0.000000E+00  0.000000E+00  0.000000E+00  0.000000E+00  9.423718E-01  2.168544E-05 -1.519613E-05  9.423718E-01                                                                                                                                                                                                                                                                                                                                                                                                                                                                                              
  1.250000E+02  1.250000E+02 -4.725000E+03  1.395543E-06 -3.452048E-11 -1.914282E-11  1.395543E-06  7.762528E-09 -1.920236E-13 -1.064838E-13  7.762528E-09  0.000000E+00  0.000000E+00  0.000000E+00  0.000000E+00  0.000000E+00  0.000000E+00  0.000000E+00  0.000000E+00  1.186992E+00 -2.869786E-05 -1.591397E-05  1.186992E+00                                                                                                                                                                                                                                                                                                                                                                                                                                                                                              
  3.750000E+02  1.250000E+02 -4.725000E+03  1.395621E-06 -1.714714E-10 -1.195364E-10  1.395621E-06  7.762963E-09 -9.538262E-13 -6.649328E-13  7.762963E-09  0.000000E+00  0.000000E+00  0.000000E+00  0.000000E+00  0.000000E+00  0.000000E+00  0.000000E+00  0.000000E+00  1.187056E+00 -1.425490E-04 -9.937402E-05  1.187056E+00                                                                                                                                                                                                                                                                                                                                                                                                                                                                                              
  6.250000E+02  1.250000E+02 -4.725000E+03  1.395672E-06 -3.462454E-10 -6.227413E-10  1.395672E-06  7.762965E-09 -1.926023E-12 -3.464053E-12  7.762964E-09  0.000000E+00  0.000000E+00  0.000000E+00  0.000000E+00  0.000000E+00  0.000000E+00  0.000000E+00  0.000000E+00  1.187095E+00 -2.878437E-04 -5.177028E-04  1.187095E+00                                                                                                                                                                                                                                                                                                                                                                                                                                                                                              
  7.600000E+02  1.250000E+02 -4.725000E+03  1.394648E-06 -3.194922E-10 -1.259823E-09  1.394648E-06  7.755548E-09 -1.777206E-12 -7.007865E-12  7.755544E-09  0.000000E+00  0.000000E+00  0.000000E+00  0.000000E+00  0.000000E+00  0.000000E+00  0.000000E+00  0.000000E+00  1.186239E+00 -2.656030E-04 -1.047328E-03  1.186239E+00                                                                                                                                                                                                                                                                                                                                                                                                                                                                                              
  7.800000E+02  1.250000E+02 -4.725000E+03  1.393575E-06 -3.552985E-11 -1.287278E-09  1.393575E-06  7.748071E-09 -1.976382E-13 -7.160580E-12  7.748068E-09  0.000000E+00  0.000000E+00  0.000000E+00  0.000000E+00  0.000000E+00  0.000000E+00  0.000000E+00  0.000000E+00  1.185347E+00 -2.953698E-05 -1.070152E-03  1.185347E+00                                                                                                                                                                                                                                                                                                                                                                                                                                                                                              
  8.000000E+02  1.250000E+02 -4.725000E+03  1.394558E-06  2.562673E-10 -1.273886E-09  1.394557E-06  7.754912E-09  1.425511E-12 -7.086091E-12  7.754909E-09  0.000000E+00  0.000000E+00  0.000000E+00  0.000000E+00  0.000000E+00  0.000000E+00  0.000000E+00  0.000000E+00  1.186164E+00  2.130423E-04 -1.059019E-03  1.186164E+00                                                                                                                                                                                                                                                                                                                                                                                                                                                                                              
  9.350000E+02  1.250000E+02 -4.725000E+03  1.395673E-06  3.231026E-10 -6.890032E-10  1.395673E-06  7.762929E-09  1.797289E-12 -3.832640E-12  7.762928E-09  0.000000E+00  0.000000E+00  0.000000E+00  0.000000E+00  0.000000E+00  0.000000E+00  0.000000E+00  0.000000E+00  1.187096E+00  2.686044E-04 -5.727883E-04  1.187096E+00                                                                                                                                                                                                                                                                                                                                                                                                                                                                                              
  1.185000E+03  1.250000E+02 -4.725000E+03  1.395654E-06  1.793107E-10 -1.485066E-10  1.395654E-06  7.763143E-09  9.974329E-13 -8.260824E-13  7.763143E-09  0.000000E+00  0.000000E+00  0.000000E+00  0.000000E+00  0.000000E+00  0.000000E+00  0.000000E+00  0.000000E+00  1.187083E+00  1.490661E-04 -1.234578E-04  1.187083E+00                                                                                                                                                                                                                                                                                                                                                                                                                                                                                              