Title="TOUGHREACT V3.30-OMP flowvector.tec: Liq & Gas Fluxes (kg/s/m^2), Pore Velocities (m/s), & Heat Fluxes (J/s/m2)"                                                                                                                                                                                                                                                                                                                                                                                                                                                                                                                                                                                                                                                                                                         
Variables= "X(m)"     "Y(m)"      "Z(m)"     "FluxLiq"   "FluxLiq_X"   "FluxLiq_Y"   "FluxLiq_Z"   "PorVelLiq"  "PorVelLiqX"  "PorVelLiqY"  "PorVelLiqZ"     "FluxGas"   "FluxGas_X"   "FluxGas_Y"   "FluxGas_Z"   "PorVelGas"  "PorVelGasX"  "PorVelGasY"  "PorVelGasZ"    "HeatFlux"  "HeatFlux_X"  "HeatFlux_Y"  "HeatFlux_Z"                                                                                                                                                                                                                                                                                                                                                                                                                                                                                                
Zone T= "5.18400000E+05 sec" I=     9 J=    10 K=    23 F=Point
  1.250000E+02  1.250000E+02 -5.425000E+03  3.496197E-07  8.945724E-17 -2.724092E-19  3.496197E-07  1.976983E-09  5.077745E-19 -1.546241E-21  1.976983E-09  0.000000E+00  0.000000E+00  0.000000E+00  0.000000E+00  0.000000E+00  0.000000E+00  0.000000E+00  0.000000E+00  3.321912E-01  8.499782E-11 -2.588297E-13  3.321912E-01                                                                                                                                                                                                                                                                                                                                                                                                                                                                                              
  3.750000E+02  1.250000E+02 -5.425000E+03  3.496197E-07 -1.440850E-17 -1.041771E-16  3.496197E-07  1.976983E-09 -8.178511E-20 -5.913268E-19  1.976983E-09  0.000000E+00  0.000000E+00  0.000000E+00  0.000000E+00  0.000000E+00  0.000000E+00  0.000000E+00  0.000000E+00  3.321912E-01 -1.369024E-11 -9.898386E-11  3.321912E-01                                                                                                                                                                                                                                                                                                                                                                                                                                                                                              
  6.250000E+02  1.250000E+02 -5.425000E+03  3.496197E-07  1.615170E-16  1.434916E-16  3.496197E-07  1.976983E-09  9.167983E-19  8.144825E-19  1.976983E-09  0.000000E+00  0.000000E+00  0.000000E+00  0.000000E+00  0.000000E+00  0.000000E+00  0.000000E+00  0.000000E+00  3.321912E-01  1.534655E-10  1.363385E-10  3.321912E-01                                                                                                                                                                                                                                                                                                                                                                                                                                                                                              
  7.600000E+02  1.250000E+02 -5.425000E+03  3.496197E-07 -7.523818E-16  1.036128E-16  3.496197E-07  1.976983E-09 -4.270647E-18  5.881238E-19  1.976983E-09  0.000000E+00  0.000000E+00  0.000000E+00  0.000000E+00  0.000000E+00  0.000000E+00  0.000000E+00  0.000000E+00  3.321912E-01 -7.148757E-10  9.844771E-11  3.321912E-01                                                                                                                                                                                                                                                                                                                                                                                                                                                                                              
  7.800000E+02  1.250000E+02 -5.425000E+03  3.496197E-07 -1.198722E-15  5.350895E-19  3.496197E-07  1.976983E-09 -6.804151E-18  3.037259E-21  1.976983E-09  0.000000E+00  0.000000E+00  0.000000E+00  0.000000E+00  0.000000E+00  0.000000E+00  0.000000E+00  0.000000E+00  3.321912E-01 -1.138966E-09  5.084154E-13  3.321912E-01                                                                                                                                                                                                                                                                                                                                                                                                                                                                                              
  8.000000E+02  1.250000E+02 -5.425000E+03  3.496197E-07  1.401322E-16  8.065258E-18  3.496197E-07  1.976983E-09  7.954142E-19  4.577978E-20  1.976983E-09  0.000000E+00  0.000000E+00  0.000000E+00  0.000000E+00  0.000000E+00  0.000000E+00  0.000000E+00  0.000000E+00  3.321912E-01  1.331466E-10  7.663207E-12  3.321912E-01                                                                                                                                                                                                                                                                                                                                                                                                                                                                                              
  9.350000E+02  1.250000E+02 -5.425000E+03  3.496197E-07  5.381318E-16 -1.443088E-16  3.496197E-07  1.976983E-09  3.054528E-18 -8.191212E-19  1.976983E-09  0.000000E+00  0.000000E+00  0.000000E+00  0.000000E+00  0.000000E+00  0.000000E+00  0.000000E+00  0.000000E+00  3.321912E-01  5.113060E-10 -1.371150E-10  3.321912E-01                                                                                                                                                                                                                                                                                                                                                                                                                                                                                              
  1.185000E+03  1.250000E+02 -5.425000E+03  3.496197E-07 -2.981713E-16 -2.021471E-16  3.496197E-07  1.976983E-09 -1.692471E-18 -1.147421E-18  1.976983E-09  0.000000E+00  0.000000E+00  0.000000E+00  0.000000E+00  0.000000E+00  0.000000E+00  0.000000E+00  0.000000E+00  3.321912E-01 -2.833076E-10 -1.920701E-10  3.321912E-01                                                                                                                                                                                                                                                                                                                                                                                                                                                                                              
  1.435000E+03  1.250000E+02 -5.425000E+03  3.496197E-07 -5.152134E-16  9.191865E-17  3.496197E-07  1.976983E-09 -2.924439E-18  5.217459E-19  1.976983E-09  0.000000E+00  0.000000E+00  0.000000E+00  0.000000E+00  0.000000E+00  0.000000E+00  0.000000E+00  0.000000E+00  3.321912E-01 -4.895301E-10  8.733653E-11  3.321912E-01                                                                                                                                                                                                                                                                                                                                                                                                                                                                                              
  1.250000E+02  1.250000E+02 -5.225000E+03  6.744283E-07 -7.850622E-18 -1.414064E-17  6.744283E-07  3.798318E-09 -4.422473E-20 -7.965813E-20  3.798318E-09  0.000000E+00  0.000000E+00  0.000000E+00  0.000000E+00  0.000000E+00  0.000000E+00  0.000000E+00  0.000000E+00  6.298430E-01 -7.194240E-12 -1.295835E-11  6.298430E-01                                                                                                                                                                                                                                                                                                                                                                                                                                                                                              
  3.750000E+02  1.250000E+02 -5.225000E+03  6.744283E-07  2.581665E-17  3.754025E-17  6.744283E-07  3.798318E-09  1.454324E-19  2.114746E-19  3.798318E-09  0.000000E+00  0.000000E+00  0.000000E+00  0.000000E+00  0.000000E+00  0.000000E+00  0.000000E+00  0.000000E+00  6.298430E-01  2.365815E-11  3.440155E-11  6.298430E-01                                                                                                                                                                                                                                                                                                                                                                                                                                                                                              
  6.250000E+02  1.250000E+02 -5.225000E+03  6.744283E-07  5.826765E-17  1.162844E-17  6.744283E-07  3.798318E-09  3.282379E-19  6.550621E-20  3.798318E-09  0.000000E+00  0.000000E+00  0.000000E+00  0.000000E+00  0.000000E+00  0.000000E+00  0.000000E+00  0.000000E+00  6.298430E-01  5.339596E-11  1.065620E-11  6.298430E-01                                                                                                                                                                                                                                                                                                                                                                                                                                                                                              
  7.600000E+02  1.250000E+02 -5.225000E+03  6.744283E-07 -4.827163E-16 -3.944343E-17  6.744283E-07  3.798318E-09 -2.719275E-18 -2.221958E-19  3.798318E-09  0.000000E+00  0.000000E+00  0.000000E+00  0.000000E+00  0.000000E+00  0.000000E+00  0.000000E+00  0.000000E+00  6.298430E-01 -4.423569E-10 -3.614561E-11  6.298430E-01                                                                                                                                                                                                                                                                                                                                                                                                                                                                                              
  7.800000E+02  1.250000E+02 -5.225000E+03  6.744283E-07 -6.971590E-16  2.206739E-17  6.744283E-07  3.798318E-09 -3.927290E-18  1.243117E-19  3.798318E-09  0.000000E+00  0.000000E+00  0.000000E+00  0.000000E+00  0.000000E+00  0.000000E+00  0.000000E+00  0.000000E+00  6.298430E-01 -6.388703E-10  2.022235E-11  6.298430E-01                                                                                                                                                                                                                                                                                                                                                                                                                                                                                              
  8.000000E+02  1.250000E+02 -5.225000E+03  6.744283E-07 -6.236443E-17  7.560387E-17  6.744283E-07  3.798318E-09 -3.513161E-19  4.258976E-19  3.798318E-09  0.000000E+00  0.000000E+00  0.000000E+00  0.000000E+00  0.000000E+00  0.000000E+00  0.000000E+00  0.000000E+00  6.298430E-01 -5.715020E-11  6.928271E-11  6.298430E-01                                                                                                                                                                                                                                                                                                                                                                                                                                                                                              
  9.350000E+02  1.250000E+02 -5.225000E+03  6.744283E-07  3.956044E-17 -5.887491E-17  6.744283E-07  3.798318E-09  2.228549E-19 -3.316587E-19  3.798318E-09  0.000000E+00  0.000000E+00  0.000000E+00  0.000000E+00  0.000000E+00  0.000000E+00  0.000000E+00  0.000000E+00  6.298430E-01  3.625283E-11 -5.395244E-11  6.298430E-01                                                                                                                                                                                                                                                                                                                                                                                                                                                                                              
  1.185000E+03  1.250000E+02 -5.225000E+03  6.744283E-07 -2.415137E-17 -5.528741E-18  6.744283E-07  3.798318E-09 -1.360514E-19 -3.114493E-20  3.798318E-09  0.000000E+00  0.000000E+00  0.000000E+00  0.000000E+00  0.000000E+00  0.000000E+00  0.000000E+00  0.000000E+00  6.298430E-01 -2.213210E-11 -5.066489E-12  6.298430E-01                                                                                                                                                                                                                                                                                                                                                                                                                                                                                              
  1.435000E+03  1.250000E+02 -5.225000E+03  6.744283E-07  6.376608E-17  3.692171E-18  6.744283E-07  3.798318E-09  3.592121E-19  2.079903E-20  3.798318E-09  0.000000E+00  0.000000E+00  0.000000E+00  0.000000E+00  0.000000E+00  0.000000E+00  0.000000E+00  0.000000E+00  6.298430E-01  5.843467E-11  3.383473E-12  6.298430E-01                                                                                                                                                                                                                                                                                                                                                                                                                                                                                              
  1.250000E+02  1.250000E+02 -4.975000E+03  6.288805E-07  1.478326E-15 -1.133297E-16  6.288805E-07  3.511076E-09  8.251692E-18 -6.325817E-19  3.511076E-09  0.000000E+00  0.000000E+00  0.000000E+00  0.000000E+00  0.000000E+00  0.000000E+00  0.000000E+00  0.000000E+00  5.634973E-01  1.292479E-09 -9.908253E-11  5.634973E-01                                                                                                                                                                                                                                                                                                                                                                                                                                                                                              
  3.750000E+02  1.250000E+02 -4.975000E+03  6.288808E-07  4.416426E-15  2.433109E-17  6.288808E-07  3.511077E-09  2.465152E-17  1.358108E-19  3.511077E-09  0.000000E+00  0.000000E+00  0.000000E+00  0.000000E+00  0.000000E+00  0.000000E+00  0.000000E+00  0.000000E+00  5.634976E-01  3.861217E-09  2.127232E-11  5.634976E-01                                                                                                                                                                                                                                                                                                                                                                                                                                                                                              
  6.250000E+02  1.250000E+02 -4.975000E+03  6.288813E-07  6.947301E-15  2.878933E-17  6.288813E-07  3.511080E-09  3.877831E-17  1.606957E-19  3.511080E-09  0.000000E+00  0.000000E+00  0.000000E+00  0.000000E+00  0.000000E+00  0.000000E+00  0.000000E+00  0.000000E+00  5.634980E-01  6.073924E-09  2.517009E-11  5.634980E-01                                                                                                                                                                                                                                                                                                                                                                                                                                                                                              
  7.600000E+02  1.250000E+02 -4.975000E+03  6.288816E-07  5.975372E-15  3.175226E-18  6.288816E-07  3.511082E-09  3.335322E-17  1.772342E-20  3.511082E-09  0.000000E+00  0.000000E+00  0.000000E+00  0.000000E+00  0.000000E+00  0.000000E+00  0.000000E+00  0.000000E+00  5.634983E-01  5.224181E-09  2.776054E-12  5.634983E-01                                                                                                                                                                                                                                                                                                                                                                                                                                                                                              
  7.800000E+02  1.250000E+02 -4.975000E+03  6.288816E-07  1.262937E-15 -4.914216E-17  6.288816E-07  3.511082E-09  7.049437E-18 -2.743008E-19  3.511082E-09  0.000000E+00  0.000000E+00  0.000000E+00  0.000000E+00  0.000000E+00  0.000000E+00  0.000000E+00  0.000000E+00  5.634983E-01  1.104167E-09 -4.296428E-11  5.634983E-01                                                                                                                                                                                                                                                                                                                                                                                                                                                                                              
  8.000000E+02  1.250000E+02 -4.975000E+03  6.288816E-07 -4.758775E-15 -9.885660E-17  6.288816E-07  3.511082E-09 -2.656244E-17 -5.517959E-19  3.511082E-09  0.000000E+00  0.000000E+00  0.000000E+00  0.000000E+00  0.000000E+00  0.000000E+00  0.000000E+00  0.000000E+00  5.634983E-01 -4.160528E-09 -8.642889E-11  5.634983E-01                                                                                                                                                                                                                                                                                                                                                                                                                                                                                              
  9.350000E+02  1.250000E+02 -4.975000E+03  6.288813E-07 -6.900719E-15 -1.751912E-17  6.288813E-07  3.511080E-09 -3.851830E-17 -9.778791E-20  3.511080E-09  0.000000E+00  0.000000E+00  0.000000E+00  0.000000E+00  0.000000E+00  0.000000E+00  0.000000E+00  0.000000E+00  5.634980E-01 -6.033198E-09 -1.531672E-11  5.634980E-01                                                                                                                                                                                                                                                                                                                                                                                                                                                                                              
  1.185000E+03  1.250000E+02 -4.975000E+03  6.288808E-07 -4.358192E-15 -2.613100E-17  6.288808E-07  3.511078E-09 -2.432647E-17 -1.458575E-19  3.511078E-09  0.000000E+00  0.000000E+00  0.000000E+00  0.000000E+00  0.000000E+00  0.000000E+00  0.000000E+00  0.000000E+00  5.634976E-01 -3.810303E-09 -2.284595E-11  5.634976E-01                                                                                                                                                                                                                                                                                                                                                                                                                                                                                              
  1.435000E+03  1.250000E+02 -4.975000E+03  6.288805E-07 -1.513014E-15  2.433109E-17  6.288805E-07  3.511076E-09 -8.445310E-18  1.358108E-19  3.511076E-09  0.000000E+00  0.000000E+00  0.000000E+00  0.000000E+00  0.000000E+00  0.000000E+00  0.000000E+00  0.000000E+00  5.634974E-01 -1.322806E-09  2.127232E-11  5.634974E-01                                                                                                                                                                                                                                                                                                                                                                                                                                                                                              
  1.250000E+02  1.250000E+02 -4.725000E+03  2.786504E-06  2.400348E-13 -9.088268E-15  2.786504E-06  1.538626E-08  1.328028E-15 -5.028219E-17  1.538626E-08  0.000000E+00  0.000000E+00  0.000000E+00  0.000000E+00  0.000000E+00  0.000000E+00  0.000000E+00  0.000000E+00  2.331902E+00  1.997740E-07 -7.563900E-09  2.331902E+00                                                                                                                                                                                                                                                                                                                                                                                                                                                                                              
  3.750000E+02  1.250000E+02 -4.725000E+03  2.786518E-06  7.198311E-13 -1.189412E-14  2.786518E-06  1.538634E-08  3.982573E-15 -6.580601E-17  1.538634E-08  0.000000E+00  0.000000E+00  0.000000E+00  0.000000E+00  0.000000E+00  0.000000E+00  0.000000E+00  0.000000E+00  2.331913E+00  5.990944E-07 -9.899132E-09  2.331913E+00                                                                                                                                                                                                                                                                                                                                                                                                                                                                                              
  6.250000E+02  1.250000E+02 -4.725000E+03  2.786547E-06  1.141575E-12 -1.368813E-14  2.786547E-06  1.538650E-08  6.315935E-15 -7.573163E-17  1.538650E-08  0.000000E+00  0.000000E+00  0.000000E+00  0.000000E+00  0.000000E+00  0.000000E+00  0.000000E+00  0.000000E+00  2.331937E+00  9.500998E-07 -1.139223E-08  2.331937E+00                                                                                                                                                                                                                                                                                                                                                                                                                                                                                              
  7.600000E+02  1.250000E+02 -4.725000E+03  2.786570E-06  8.900869E-13 -1.231634E-14  2.786570E-06  1.538663E-08  4.924538E-15 -6.814200E-17  1.538663E-08  0.000000E+00  0.000000E+00  0.000000E+00  0.000000E+00  0.000000E+00  0.000000E+00  0.000000E+00  0.000000E+00  2.331956E+00  7.407933E-07 -1.025053E-08  2.331956E+00                                                                                                                                                                                                                                                                                                                                                                                                                                                                                              
  7.800000E+02  1.250000E+02 -4.725000E+03  2.786571E-06  8.548145E-15 -1.238233E-14  2.786571E-06  1.538663E-08  4.729388E-17 -6.850709E-17  1.538663E-08  0.000000E+00  0.000000E+00  0.000000E+00  0.000000E+00  0.000000E+00  0.000000E+00  0.000000E+00  0.000000E+00  2.331957E+00  7.114371E-09 -1.030545E-08  2.331957E+00                                                                                                                                                                                                                                                                                                                                                                                                                                                                                              
  8.000000E+02  1.250000E+02 -4.725000E+03  2.786570E-06 -8.692131E-13 -1.119938E-14  2.786570E-06  1.538663E-08 -4.809051E-15 -6.196222E-17  1.538663E-08  0.000000E+00  0.000000E+00  0.000000E+00  0.000000E+00  0.000000E+00  0.000000E+00  0.000000E+00  0.000000E+00  2.331956E+00 -7.234207E-07 -9.320915E-09  2.331956E+00                                                                                                                                                                                                                                                                                                                                                                                                                                                                                              
  9.350000E+02  1.250000E+02 -4.725000E+03  2.786548E-06 -1.117075E-12 -9.174289E-15  2.786548E-06  1.538650E-08 -6.180382E-15 -5.075812E-17  1.538650E-08  0.000000E+00  0.000000E+00  0.000000E+00  0.000000E+00  0.000000E+00  0.000000E+00  0.000000E+00  0.000000E+00  2.331938E+00 -9.297087E-07 -7.635493E-09  2.331938E+00                                                                                                                                                                                                                                                                                                                                                                                                                                                                                              
  1.185000E+03  1.250000E+02 -4.725000E+03  2.786521E-06 -7.020940E-13 -7.288183E-15  2.786521E-06  1.538636E-08 -3.884440E-15 -4.032295E-17  1.538636E-08  0.000000E+00  0.000000E+00  0.000000E+00  0.000000E+00  0.000000E+00  0.000000E+00  0.000000E+00  0.000000E+00  2.331916E+00 -5.843323E-07 -6.065742E-09  2.331916E+00                                                                                                                                                                                                                                                                                                                                                                                                                                                                                              