Title="TOUGHREACT V3.30-OMP flowvector.tec: Liq & Gas Fluxes (kg/s/m^2), Pore Velocities (m/s), & Heat Fluxes (J/s/m2)"                                                                                                                                                                                                                                                                                                                                                                                                                                                                                                                                                                                                                                                                                                         
Variables= "X(m)"     "Y(m)"      "Z(m)"     "FluxLiq"   "FluxLiq_X"   "FluxLiq_Y"   "FluxLiq_Z"   "PorVelLiq"  "PorVelLiqX"  "PorVelLiqY"  "PorVelLiqZ"     "FluxGas"   "FluxGas_X"   "FluxGas_Y"   "FluxGas_Z"   "PorVelGas"  "PorVelGasX"  "PorVelGasY"  "PorVelGasZ"    "HeatFlux"  "HeatFlux_X"  "HeatFlux_Y"  "HeatFlux_Z"                                                                                                                                                                                                                                                                                                                                                                                                                                                                                                
Zone T= "1.00000000E+07 sec" I=     9 J=    10 K=    23 F=Point
  1.250000E+02  1.250000E+02 -5.425000E+03  2.681006E-07  7.544676E-16 -1.156147E-16  2.681006E-07  1.516223E-09  4.283135E-18 -6.563478E-19  1.516223E-09  0.000000E+00  0.000000E+00  0.000000E+00  0.000000E+00  0.000000E+00  0.000000E+00  0.000000E+00  0.000000E+00  2.547276E-01  7.168344E-10 -1.098477E-10  2.547276E-01                                                                                                                                                                                                                                                                                                                                                                                                                                                                                              
  3.750000E+02  1.250000E+02 -5.425000E+03  2.681006E-07  1.969730E-15 -2.023329E-16  2.681006E-07  1.516223E-09  1.118222E-17 -1.148650E-18  1.516223E-09  0.000000E+00  0.000000E+00  0.000000E+00  0.000000E+00  0.000000E+00  0.000000E+00  0.000000E+00  0.000000E+00  2.547276E-01  1.871479E-09 -1.922405E-10  2.547276E-01                                                                                                                                                                                                                                                                                                                                                                                                                                                                                              
  6.250000E+02  1.250000E+02 -5.425000E+03  2.681006E-07  1.629898E-15 -8.144495E-17  2.681006E-07  1.516223E-09  9.252978E-18 -4.623654E-19  1.516223E-09  0.000000E+00  0.000000E+00  0.000000E+00  0.000000E+00  0.000000E+00  0.000000E+00  0.000000E+00  0.000000E+00  2.547276E-01  1.548598E-09 -7.738244E-11  2.547276E-01                                                                                                                                                                                                                                                                                                                                                                                                                                                                                              
  7.600000E+02  1.250000E+02 -5.425000E+03  2.681006E-07  6.775728E-16 -1.399090E-16  2.681006E-07  1.516223E-09  3.846601E-18 -7.942676E-19  1.516223E-09  0.000000E+00  0.000000E+00  0.000000E+00  0.000000E+00  0.000000E+00  0.000000E+00  0.000000E+00  0.000000E+00  2.547276E-01  6.437752E-10 -1.329303E-10  2.547276E-01                                                                                                                                                                                                                                                                                                                                                                                                                                                                                              
  7.800000E+02  1.250000E+02 -5.425000E+03  2.681006E-07  3.366378E-16 -1.473909E-16  2.681006E-07  1.516223E-09  1.911103E-18 -8.367427E-19  1.516223E-09  0.000000E+00  0.000000E+00  0.000000E+00  0.000000E+00  0.000000E+00  0.000000E+00  0.000000E+00  0.000000E+00  2.547276E-01  3.198462E-10 -1.400390E-10  2.547276E-01                                                                                                                                                                                                                                                                                                                                                                                                                                                                                              
  8.000000E+02  1.250000E+02 -5.425000E+03  2.681006E-07  3.180078E-18 -1.532578E-16  2.681006E-07  1.516223E-09  1.805340E-20 -8.700489E-19  1.516223E-09  0.000000E+00  0.000000E+00  0.000000E+00  0.000000E+00  0.000000E+00  0.000000E+00  0.000000E+00  0.000000E+00  2.547276E-01  3.021454E-12 -1.456132E-10  2.547276E-01                                                                                                                                                                                                                                                                                                                                                                                                                                                                                              
  9.350000E+02  1.250000E+02 -5.425000E+03  2.681006E-07 -1.122854E-15 -2.170244E-16  2.681006E-07  1.516223E-09 -6.374475E-18 -1.232054E-18  1.516223E-09  0.000000E+00  0.000000E+00  0.000000E+00  0.000000E+00  0.000000E+00  0.000000E+00  0.000000E+00  0.000000E+00  2.547276E-01 -1.066846E-09 -2.061991E-10  2.547276E-01                                                                                                                                                                                                                                                                                                                                                                                                                                                                                              
  1.185000E+03  1.250000E+02 -5.425000E+03  2.681006E-07 -1.935327E-15 -1.273094E-16  2.681006E-07  1.516223E-09 -1.098691E-17 -7.227393E-19  1.516223E-09  0.000000E+00  0.000000E+00  0.000000E+00  0.000000E+00  0.000000E+00  0.000000E+00  0.000000E+00  0.000000E+00  2.547276E-01 -1.838792E-09 -1.209592E-10  2.547276E-01                                                                                                                                                                                                                                                                                                                                                                                                                                                                                              
  1.435000E+03  1.250000E+02 -5.425000E+03  2.681006E-07 -8.829932E-16 -1.848589E-17  2.681006E-07  1.516223E-09 -5.012779E-18 -1.049450E-19  1.516223E-09  0.000000E+00  0.000000E+00  0.000000E+00  0.000000E+00  0.000000E+00  0.000000E+00  0.000000E+00  0.000000E+00  2.547276E-01 -8.389491E-10 -1.756381E-11  2.547276E-01                                                                                                                                                                                                                                                                                                                                                                                                                                                                                              
  1.250000E+02  1.250000E+02 -5.225000E+03  6.121690E-07  5.125100E-15 -9.894304E-16  6.121690E-07  3.445577E-09  2.887130E-17 -5.573772E-18  3.445577E-09  0.000000E+00  0.000000E+00  0.000000E+00  0.000000E+00  0.000000E+00  0.000000E+00  0.000000E+00  0.000000E+00  5.700281E-01  4.696586E-09 -9.067032E-10  5.700281E-01                                                                                                                                                                                                                                                                                                                                                                                                                                                                                              
  3.750000E+02  1.250000E+02 -5.225000E+03  6.121690E-07  1.431354E-14 -1.058212E-15  6.121690E-07  3.445577E-09  8.063266E-17 -5.961239E-18  3.445577E-09  0.000000E+00  0.000000E+00  0.000000E+00  0.000000E+00  0.000000E+00  0.000000E+00  0.000000E+00  0.000000E+00  5.700282E-01  1.311677E-08 -9.697336E-10  5.700282E-01                                                                                                                                                                                                                                                                                                                                                                                                                                                                                              
  6.250000E+02  1.250000E+02 -5.225000E+03  6.121692E-07  1.219610E-14 -1.111330E-15  6.121692E-07  3.445578E-09  6.870444E-17 -6.260469E-18  3.445578E-09  0.000000E+00  0.000000E+00  0.000000E+00  0.000000E+00  0.000000E+00  0.000000E+00  0.000000E+00  0.000000E+00  5.700283E-01  1.117637E-08 -1.018410E-09  5.700283E-01                                                                                                                                                                                                                                                                                                                                                                                                                                                                                              
  7.600000E+02  1.250000E+02 -5.225000E+03  6.121692E-07  4.450751E-15 -1.020452E-15  6.121692E-07  3.445578E-09  2.507248E-17 -5.748529E-18  3.445578E-09  0.000000E+00  0.000000E+00  0.000000E+00  0.000000E+00  0.000000E+00  0.000000E+00  0.000000E+00  0.000000E+00  5.700283E-01  4.078619E-09 -9.351314E-10  5.700283E-01                                                                                                                                                                                                                                                                                                                                                                                                                                                                                              
  7.800000E+02  1.250000E+02 -5.225000E+03  6.121692E-07  1.287270E-15 -1.008101E-15  6.121692E-07  3.445578E-09  7.251597E-18 -5.678948E-18  3.445578E-09  0.000000E+00  0.000000E+00  0.000000E+00  0.000000E+00  0.000000E+00  0.000000E+00  0.000000E+00  0.000000E+00  5.700283E-01  1.179640E-09 -9.238124E-10  5.700283E-01                                                                                                                                                                                                                                                                                                                                                                                                                                                                                              
  8.000000E+02  1.250000E+02 -5.225000E+03  6.121692E-07 -1.872818E-15 -9.972144E-16  6.121692E-07  3.445578E-09 -1.055017E-17 -5.617622E-18  3.445578E-09  0.000000E+00  0.000000E+00  0.000000E+00  0.000000E+00  0.000000E+00  0.000000E+00  0.000000E+00  0.000000E+00  5.700283E-01 -1.716230E-09 -9.138364E-10  5.700283E-01                                                                                                                                                                                                                                                                                                                                                                                                                                                                                              
  9.350000E+02  1.250000E+02 -5.225000E+03  6.121692E-07 -9.878568E-15 -9.097248E-16  6.121692E-07  3.445578E-09 -5.564907E-17 -5.124765E-18  3.445578E-09  0.000000E+00  0.000000E+00  0.000000E+00  0.000000E+00  0.000000E+00  0.000000E+00  0.000000E+00  0.000000E+00  5.700283E-01 -9.052611E-09 -8.336619E-10  5.700283E-01                                                                                                                                                                                                                                                                                                                                                                                                                                                                                              
  1.185000E+03  1.250000E+02 -5.225000E+03  6.121691E-07 -1.279708E-14 -6.689047E-16  6.121691E-07  3.445577E-09 -7.208996E-17 -3.768150E-18  3.445577E-09  0.000000E+00  0.000000E+00  0.000000E+00  0.000000E+00  0.000000E+00  0.000000E+00  0.000000E+00  0.000000E+00  5.700282E-01 -1.172710E-08 -6.129769E-10  5.700282E-01                                                                                                                                                                                                                                                                                                                                                                                                                                                                                              
  1.435000E+03  1.250000E+02 -5.225000E+03  6.121690E-07 -4.635505E-15 -5.181340E-16  6.121690E-07  3.445577E-09 -2.611325E-17 -2.918811E-18  3.445577E-09  0.000000E+00  0.000000E+00  0.000000E+00  0.000000E+00  0.000000E+00  0.000000E+00  0.000000E+00  0.000000E+00  5.700282E-01 -4.247926E-09 -4.748123E-10  5.700282E-01                                                                                                                                                                                                                                                                                                                                                                                                                                                                                              
  1.250000E+02  1.250000E+02 -4.975000E+03  9.593130E-07  6.635934E-14 -1.336046E-14  9.593130E-07  5.348669E-09  3.704165E-16 -7.457784E-17  5.348669E-09  0.000000E+00  0.000000E+00  0.000000E+00  0.000000E+00  0.000000E+00  0.000000E+00  0.000000E+00  0.000000E+00  8.531920E-01  5.801615E-08 -1.168069E-08  8.531920E-01                                                                                                                                                                                                                                                                                                                                                                                                                                                                                              
  3.750000E+02  1.250000E+02 -4.975000E+03  9.593137E-07  1.894399E-13 -1.527637E-14  9.593137E-07  5.348672E-09  1.057450E-15 -8.527237E-17  5.348672E-09  0.000000E+00  0.000000E+00  0.000000E+00  0.000000E+00  0.000000E+00  0.000000E+00  0.000000E+00  0.000000E+00  8.531926E-01  1.656221E-07 -1.335571E-08  8.531926E-01                                                                                                                                                                                                                                                                                                                                                                                                                                                                                              
  6.250000E+02  1.250000E+02 -4.975000E+03  9.593150E-07  1.777131E-13 -1.622568E-14  9.593150E-07  5.348680E-09  9.919910E-16 -9.057143E-17  5.348680E-09  0.000000E+00  0.000000E+00  0.000000E+00  0.000000E+00  0.000000E+00  0.000000E+00  0.000000E+00  0.000000E+00  8.531938E-01  1.553697E-07 -1.418567E-08  8.531938E-01                                                                                                                                                                                                                                                                                                                                                                                                                                                                                              
  7.600000E+02  1.250000E+02 -4.975000E+03  9.593155E-07  7.930334E-14 -1.486911E-14  9.593155E-07  5.348682E-09  4.426697E-16 -8.299907E-17  5.348682E-09  0.000000E+00  0.000000E+00  0.000000E+00  0.000000E+00  0.000000E+00  0.000000E+00  0.000000E+00  0.000000E+00  8.531942E-01  6.933274E-08 -1.299965E-08  8.531942E-01                                                                                                                                                                                                                                                                                                                                                                                                                                                                                              
  7.800000E+02  1.250000E+02 -4.975000E+03  9.593155E-07  1.813693E-14 -1.464831E-14  9.593155E-07  5.348683E-09  1.012400E-16 -8.176656E-17  5.348683E-09  0.000000E+00  0.000000E+00  0.000000E+00  0.000000E+00  0.000000E+00  0.000000E+00  0.000000E+00  0.000000E+00  8.531942E-01  1.585662E-08 -1.280661E-08  8.531942E-01                                                                                                                                                                                                                                                                                                                                                                                                                                                                                              
  8.000000E+02  1.250000E+02 -4.975000E+03  9.593155E-07 -4.305758E-14 -1.440911E-14  9.593155E-07  5.348682E-09 -2.403466E-16 -8.043136E-17  5.348682E-09  0.000000E+00  0.000000E+00  0.000000E+00  0.000000E+00  0.000000E+00  0.000000E+00  0.000000E+00  0.000000E+00  8.531942E-01 -3.764406E-08 -1.259749E-08  8.531942E-01                                                                                                                                                                                                                                                                                                                                                                                                                                                                                              
  9.350000E+02  1.250000E+02 -4.975000E+03  9.593151E-07 -1.456416E-13 -1.267139E-14  9.593151E-07  5.348680E-09 -8.129684E-16 -7.073146E-17  5.348680E-09  0.000000E+00  0.000000E+00  0.000000E+00  0.000000E+00  0.000000E+00  0.000000E+00  0.000000E+00  0.000000E+00  8.531939E-01 -1.273304E-07 -1.107825E-08  8.531939E-01                                                                                                                                                                                                                                                                                                                                                                                                                                                                                              
  1.185000E+03  1.250000E+02 -4.975000E+03  9.593140E-07 -1.684723E-13 -8.725840E-15  9.593140E-07  5.348674E-09 -9.404090E-16 -4.870747E-17  5.348674E-09  0.000000E+00  0.000000E+00  0.000000E+00  0.000000E+00  0.000000E+00  0.000000E+00  0.000000E+00  0.000000E+00  8.531929E-01 -1.472907E-07 -7.628763E-09  8.531929E-01                                                                                                                                                                                                                                                                                                                                                                                                                                                                                              
  1.435000E+03  1.250000E+02 -4.975000E+03  9.593134E-07 -5.935441E-14 -6.398306E-15  9.593134E-07  5.348671E-09 -3.313151E-16 -3.571522E-17  5.348671E-09  0.000000E+00  0.000000E+00  0.000000E+00  0.000000E+00  0.000000E+00  0.000000E+00  0.000000E+00  0.000000E+00  8.531924E-01 -5.189193E-08 -5.593864E-09  8.531924E-01                                                                                                                                                                                                                                                                                                                                                                                                                                                                                              
  1.250000E+02  1.250000E+02 -4.725000E+03  3.418202E-06  6.435575E-13 -1.562286E-13  3.418202E-06  1.889604E-08  3.563148E-15 -8.649820E-16  1.889604E-08  0.000000E+00  0.000000E+00  0.000000E+00  0.000000E+00  0.000000E+00  0.000000E+00  0.000000E+00  0.000000E+00  2.870143E+00  5.354836E-07 -1.299928E-07  2.870143E+00                                                                                                                                                                                                                                                                                                                                                                                                                                                                                              
  3.750000E+02  1.250000E+02 -4.725000E+03  3.418205E-06  1.899207E-12 -1.810973E-13  3.418205E-06  1.889606E-08  1.051523E-14 -1.002671E-15  1.889606E-08  0.000000E+00  0.000000E+00  0.000000E+00  0.000000E+00  0.000000E+00  0.000000E+00  0.000000E+00  0.000000E+00  2.870146E+00  1.580270E-06 -1.506853E-07  2.870146E+00                                                                                                                                                                                                                                                                                                                                                                                                                                                                                              
  6.250000E+02  1.250000E+02 -4.725000E+03  3.418212E-06  2.151061E-12 -1.968349E-13  3.418212E-06  1.889610E-08  1.190966E-14 -1.089805E-15  1.889610E-08  0.000000E+00  0.000000E+00  0.000000E+00  0.000000E+00  0.000000E+00  0.000000E+00  0.000000E+00  0.000000E+00  2.870151E+00  1.789829E-06 -1.637801E-07  2.870151E+00                                                                                                                                                                                                                                                                                                                                                                                                                                                                                              
  7.600000E+02  1.250000E+02 -4.725000E+03  3.418219E-06  1.272012E-12 -1.784394E-13  3.418219E-06  1.889617E-08  7.042678E-15 -9.879554E-16  1.889617E-08  0.000000E+00  0.000000E+00  0.000000E+00  0.000000E+00  0.000000E+00  0.000000E+00  0.000000E+00  0.000000E+00  2.870157E+00  1.058401E-06 -1.484738E-07  2.870157E+00                                                                                                                                                                                                                                                                                                                                                                                                                                                                                              
  7.800000E+02  1.250000E+02 -4.725000E+03  3.418220E-06  2.136433E-13 -1.754415E-13  3.418220E-06  1.889617E-08  1.182867E-15 -9.713570E-16  1.889617E-08  0.000000E+00  0.000000E+00  0.000000E+00  0.000000E+00  0.000000E+00  0.000000E+00  0.000000E+00  0.000000E+00  2.870158E+00  1.777658E-07 -1.459793E-07  2.870158E+00                                                                                                                                                                                                                                                                                                                                                                                                                                                                                              
  8.000000E+02  1.250000E+02 -4.725000E+03  3.418219E-06 -8.463413E-13 -1.722020E-13  3.418219E-06  1.889617E-08 -4.685889E-15 -9.534208E-16  1.889617E-08  0.000000E+00  0.000000E+00  0.000000E+00  0.000000E+00  0.000000E+00  0.000000E+00  0.000000E+00  0.000000E+00  2.870158E+00 -7.042136E-07 -1.432838E-07  2.870158E+00                                                                                                                                                                                                                                                                                                                                                                                                                                                                                              
  9.350000E+02  1.250000E+02 -4.725000E+03  3.418213E-06 -1.776881E-12 -1.489981E-13  3.418213E-06  1.889611E-08 -9.837953E-15 -8.249493E-16  1.889611E-08  0.000000E+00  0.000000E+00  0.000000E+00  0.000000E+00  0.000000E+00  0.000000E+00  0.000000E+00  0.000000E+00  2.870152E+00 -1.478486E-06 -1.239766E-07  2.870152E+00                                                                                                                                                                                                                                                                                                                                                                                                                                                                                              
  1.185000E+03  1.250000E+02 -4.725000E+03  3.418208E-06 -1.655361E-12 -1.021278E-13  3.418208E-06  1.889607E-08 -9.165142E-15 -5.654451E-16  1.889607E-08  0.000000E+00  0.000000E+00  0.000000E+00  0.000000E+00  0.000000E+00  0.000000E+00  0.000000E+00  0.000000E+00  2.870148E+00 -1.377373E-06 -8.497727E-08  2.870148E+00                                                                                                                                                                                                                                                                                                                                                                                                                                                                                              