Title="TOUGHREACT V3.30-OMP flowvector.tec: Liq & Gas Fluxes (kg/s/m^2), Pore Velocities (m/s), & Heat Fluxes (J/s/m2)"                                                                                                                                                                                                                                                                                                                                                                                                                                                                                                                                                                                                                                                                                                         
Variables= "X(m)"     "Y(m)"      "Z(m)"     "FluxLiq"   "FluxLiq_X"   "FluxLiq_Y"   "FluxLiq_Z"   "PorVelLiq"  "PorVelLiqX"  "PorVelLiqY"  "PorVelLiqZ"     "FluxGas"   "FluxGas_X"   "FluxGas_Y"   "FluxGas_Z"   "PorVelGas"  "PorVelGasX"  "PorVelGasY"  "PorVelGasZ"    "HeatFlux"  "HeatFlux_X"  "HeatFlux_Y"  "HeatFlux_Z"                                                                                                                                                                                                                                                                                                                                                                                                                                                                                                
Zone T= "1.00000000E+10 sec" I=     9 J=    10 K=    23 F=Point
  1.250000E+02  1.250000E+02 -5.425000E+03  1.589703E-09  1.589191E-11  1.692011E-10  1.580593E-09  9.022856E-12  9.065655E-14  9.652199E-13  8.970623E-12  0.000000E+00  0.000000E+00  0.000000E+00  0.000000E+00  0.000000E+00  0.000000E+00  0.000000E+00  0.000000E+00  1.523744E-03  1.523253E-05  1.621807E-04  1.515011E-03                                                                                                                                                                                                                                                                                                                                                                                                                                                                                              
  3.750000E+02  1.250000E+02 -5.425000E+03  1.687478E-09 -1.491040E-10  2.231999E-10  1.665993E-09  9.578496E-12 -8.505746E-13  1.273260E-12  9.455311E-12  0.000000E+00  0.000000E+00  0.000000E+00  0.000000E+00  0.000000E+00  0.000000E+00  0.000000E+00  0.000000E+00  1.617462E-03 -1.429176E-04  2.139390E-04  1.596869E-03                                                                                                                                                                                                                                                                                                                                                                                                                                                                                              
  6.250000E+02  1.250000E+02 -5.425000E+03  1.865217E-09 -6.556837E-10  2.687746E-10  1.725362E-09  1.059385E-11 -3.740392E-12  1.533244E-12  9.792256E-12  0.000000E+00  0.000000E+00  0.000000E+00  0.000000E+00  0.000000E+00  0.000000E+00  0.000000E+00  0.000000E+00  1.787828E-03 -6.284792E-04  2.576229E-04  1.653775E-03                                                                                                                                                                                                                                                                                                                                                                                                                                                                                              
  7.600000E+02  1.250000E+02 -5.425000E+03  1.959706E-09 -9.975813E-10  2.384594E-10  1.669855E-09  1.113791E-11 -5.690770E-12  1.360308E-12  9.477221E-12  0.000000E+00  0.000000E+00  0.000000E+00  0.000000E+00  0.000000E+00  0.000000E+00  0.000000E+00  0.000000E+00  1.878397E-03 -9.561917E-04  2.285657E-04  1.600572E-03                                                                                                                                                                                                                                                                                                                                                                                                                                                                                              
  7.800000E+02  1.250000E+02 -5.425000E+03  1.967624E-09 -1.028433E-09  2.335662E-10  1.661119E-09  1.118368E-11 -5.866766E-12  1.332394E-12  9.427639E-12  0.000000E+00  0.000000E+00  0.000000E+00  0.000000E+00  0.000000E+00  0.000000E+00  0.000000E+00  0.000000E+00  1.885987E-03 -9.857635E-04  2.238756E-04  1.592199E-03                                                                                                                                                                                                                                                                                                                                                                                                                                                                                              
  8.000000E+02  1.250000E+02 -5.425000E+03  1.973926E-09 -1.056079E-09  2.283103E-10  1.651955E-09  1.122020E-11 -6.024469E-12  1.302411E-12  9.375629E-12  0.000000E+00  0.000000E+00  0.000000E+00  0.000000E+00  0.000000E+00  0.000000E+00  0.000000E+00  0.000000E+00  1.892028E-03 -1.012262E-03  2.188377E-04  1.583415E-03                                                                                                                                                                                                                                                                                                                                                                                                                                                                                              
  9.350000E+02  1.250000E+02 -5.425000E+03  1.933367E-09 -1.086563E-09  1.906626E-10  1.587745E-09  1.099111E-11 -6.198363E-12  1.087647E-12  9.011203E-12  0.000000E+00  0.000000E+00  0.000000E+00  0.000000E+00  0.000000E+00  0.000000E+00  0.000000E+00  0.000000E+00  1.853153E-03 -1.041482E-03  1.827521E-04  1.521871E-03                                                                                                                                                                                                                                                                                                                                                                                                                                                                                              
  1.185000E+03  1.250000E+02 -5.425000E+03  1.739930E-09 -8.869764E-10  1.156636E-10  1.492397E-09  9.888305E-12 -5.059802E-12  6.598092E-13  8.470043E-12  0.000000E+00  0.000000E+00  0.000000E+00  0.000000E+00  0.000000E+00  0.000000E+00  0.000000E+00  0.000000E+00  1.667741E-03 -8.501764E-04  1.108648E-04  1.430479E-03                                                                                                                                                                                                                                                                                                                                                                                                                                                                                              
  1.435000E+03  1.250000E+02 -5.425000E+03  1.487535E-09 -3.349523E-10  7.296868E-11  1.447495E-09  8.444741E-12 -1.910751E-12  4.162533E-13  8.215194E-12  0.000000E+00  0.000000E+00  0.000000E+00  0.000000E+00  0.000000E+00  0.000000E+00  0.000000E+00  0.000000E+00  1.425818E-03 -3.210553E-04  6.994125E-05  1.387440E-03                                                                                                                                                                                                                                                                                                                                                                                                                                                                                              
  1.250000E+02  1.250000E+02 -5.225000E+03  4.280731E-10  8.115162E-11  2.119955E-10  3.629310E-10  2.491460E-12  4.579447E-13  1.196306E-12  2.136940E-12  0.000000E+00  0.000000E+00  0.000000E+00  0.000000E+00  0.000000E+00  0.000000E+00  0.000000E+00  0.000000E+00  4.963003E-04  7.433538E-05  1.941891E-04  4.506427E-04                                                                                                                                                                                                                                                                                                                                                                                                                                                                                              
  3.750000E+02  1.250000E+02 -5.225000E+03  7.797410E-10 -3.369836E-11  3.074514E-10  7.157751E-10  4.476802E-12 -1.901625E-13  1.734972E-12  4.122555E-12  0.000000E+00  0.000000E+00  0.000000E+00  0.000000E+00  0.000000E+00  0.000000E+00  0.000000E+00  0.000000E+00  8.169731E-04 -3.086815E-05  2.816276E-04  7.662754E-04                                                                                                                                                                                                                                                                                                                                                                                                                                                                                              
  6.250000E+02  1.250000E+02 -5.225000E+03  1.257202E-09 -6.711431E-10  4.046514E-10  9.830464E-10  7.156324E-12 -3.787309E-12  2.283480E-12  5.626276E-12  0.000000E+00  0.000000E+00  0.000000E+00  0.000000E+00  0.000000E+00  0.000000E+00  0.000000E+00  0.000000E+00  1.234983E-03 -6.147729E-04  3.706640E-04  1.004911E-03                                                                                                                                                                                                                                                                                                                                                                                                                                                                                              
  7.600000E+02  1.250000E+02 -5.225000E+03  1.400430E-09 -1.133241E-09  3.474391E-10  7.458241E-10  7.947076E-12 -6.394963E-12  1.960625E-12  4.291434E-12  0.000000E+00  0.000000E+00  0.000000E+00  0.000000E+00  0.000000E+00  0.000000E+00  0.000000E+00  0.000000E+00  1.344431E-03 -1.038059E-03  3.182573E-04  7.928677E-04                                                                                                                                                                                                                                                                                                                                                                                                                                                                                              
  7.800000E+02  1.250000E+02 -5.225000E+03  1.410710E-09 -1.172211E-09  3.382777E-10  7.082314E-10  8.002885E-12 -6.614872E-12  1.908926E-12  4.079906E-12  0.000000E+00  0.000000E+00  0.000000E+00  0.000000E+00  0.000000E+00  0.000000E+00  0.000000E+00  0.000000E+00  1.351096E-03 -1.073756E-03  3.098654E-04  7.592713E-04                                                                                                                                                                                                                                                                                                                                                                                                                                                                                              
  8.000000E+02  1.250000E+02 -5.225000E+03  1.418709E-09 -1.206488E-09  3.285195E-10  6.702228E-10  8.045852E-12 -6.808293E-12  1.853860E-12  3.866017E-12  0.000000E+00  0.000000E+00  0.000000E+00  0.000000E+00  0.000000E+00  0.000000E+00  0.000000E+00  0.000000E+00  1.355708E-03 -1.105154E-03  3.009268E-04  7.252741E-04                                                                                                                                                                                                                                                                                                                                                                                                                                                                                              
  9.350000E+02  1.250000E+02 -5.225000E+03  1.313177E-09 -1.220483E-09  2.592327E-10  4.094565E-10  7.438219E-12 -6.887259E-12  1.462868E-12  2.398496E-12  0.000000E+00  0.000000E+00  0.000000E+00  0.000000E+00  0.000000E+00  0.000000E+00  0.000000E+00  0.000000E+00  1.244280E-03 -1.117973E-03  2.374596E-04  4.919158E-04                                                                                                                                                                                                                                                                                                                                                                                                                                                                                              
  1.185000E+03  1.250000E+02 -5.225000E+03  9.831432E-10 -9.686835E-10  1.445457E-10  8.561164E-11  5.556686E-12 -5.466332E-12  8.156797E-13  5.750049E-13  0.000000E+00  0.000000E+00  0.000000E+00  0.000000E+00  0.000000E+00  0.000000E+00  0.000000E+00  0.000000E+00  9.193424E-04 -8.873224E-04  1.324052E-04  2.007938E-04                                                                                                                                                                                                                                                                                                                                                                                                                                                                                              
  1.435000E+03  1.250000E+02 -5.225000E+03  3.731067E-10 -3.594254E-10  8.450943E-11 -5.366724E-11  2.094069E-12 -2.028255E-12  4.768908E-13 -2.094843E-13  0.000000E+00  0.000000E+00  0.000000E+00  0.000000E+00  0.000000E+00  0.000000E+00  0.000000E+00  0.000000E+00  3.464870E-04 -3.292365E-04  7.741132E-05  7.525994E-05                                                                                                                                                                                                                                                                                                                                                                                                                                                                                              
  1.250000E+02  1.250000E+02 -4.975000E+03  5.680104E-09  3.469320E-10  3.524849E-10 -5.658531E-09  3.162603E-11  1.937976E-12  1.968995E-12 -3.150513E-11  0.000000E+00  0.000000E+00  0.000000E+00  0.000000E+00  0.000000E+00  0.000000E+00  0.000000E+00  0.000000E+00  4.772637E-03  3.032563E-04  3.081102E-04 -4.753016E-03                                                                                                                                                                                                                                                                                                                                                                                                                                                                                              
  3.750000E+02  1.250000E+02 -4.975000E+03  4.890836E-09  4.436570E-10  6.520347E-10 -4.826831E-09  2.722803E-11  2.478287E-12  3.642296E-12 -2.686927E-11  0.000000E+00  0.000000E+00  0.000000E+00  0.000000E+00  0.000000E+00  0.000000E+00  0.000000E+00  0.000000E+00  4.108438E-03  3.878044E-04  5.699490E-04 -4.050188E-03                                                                                                                                                                                                                                                                                                                                                                                                                                                                                              
  6.250000E+02  1.250000E+02 -4.975000E+03  4.314658E-09 -7.807437E-10  1.070282E-09 -4.106241E-09  2.402231E-11 -4.361266E-12  5.978652E-12 -2.285403E-11  0.000000E+00  0.000000E+00  0.000000E+00  0.000000E+00  0.000000E+00  0.000000E+00  0.000000E+00  0.000000E+00  3.631821E-03 -6.824562E-04  9.355433E-04 -3.442257E-03                                                                                                                                                                                                                                                                                                                                                                                                                                                                                              
  7.600000E+02  1.250000E+02 -4.975000E+03  5.128404E-09 -1.794257E-09  8.476707E-10 -4.728913E-09  2.856170E-11 -1.002279E-11  4.735128E-12 -2.632286E-11  0.000000E+00  0.000000E+00  0.000000E+00  0.000000E+00  0.000000E+00  0.000000E+00  0.000000E+00  0.000000E+00  4.329037E-03 -1.568378E-03  7.409577E-04 -3.966325E-03                                                                                                                                                                                                                                                                                                                                                                                                                                                                                              
  7.800000E+02  1.250000E+02 -4.975000E+03  5.355340E-09 -1.856547E-09  8.132138E-10 -4.956973E-09  2.982296E-11 -1.037075E-11  4.542648E-12 -2.759023E-11  0.000000E+00  0.000000E+00  0.000000E+00  0.000000E+00  0.000000E+00  0.000000E+00  0.000000E+00  0.000000E+00  4.517074E-03 -1.622825E-03  7.108377E-04 -4.155130E-03                                                                                                                                                                                                                                                                                                                                                                                                                                                                                              
  8.000000E+02  1.250000E+02 -4.975000E+03  5.436128E-09 -1.898042E-09  7.775220E-10 -5.034320E-09  3.027349E-11 -1.060253E-11  4.343272E-12 -2.802154E-11  0.000000E+00  0.000000E+00  0.000000E+00  0.000000E+00  0.000000E+00  0.000000E+00  0.000000E+00  0.000000E+00  4.585625E-03 -1.659098E-03  6.796394E-04 -4.220597E-03                                                                                                                                                                                                                                                                                                                                                                                                                                                                                              
  9.350000E+02  1.250000E+02 -4.975000E+03  5.852397E-09 -1.776835E-09  5.310856E-10 -5.550797E-09  3.259184E-11 -9.925441E-12  2.966664E-12 -3.090166E-11  0.000000E+00  0.000000E+00  0.000000E+00  0.000000E+00  0.000000E+00  0.000000E+00  0.000000E+00  0.000000E+00  4.931800E-03 -1.553149E-03  4.642277E-04 -4.657775E-03                                                                                                                                                                                                                                                                                                                                                                                                                                                                                              
  1.185000E+03  1.250000E+02 -4.975000E+03  6.093403E-09 -1.260627E-09  2.453855E-10 -5.956523E-09  3.393601E-11 -7.041877E-12  1.370728E-12 -3.316905E-11  0.000000E+00  0.000000E+00  0.000000E+00  0.000000E+00  0.000000E+00  0.000000E+00  0.000000E+00  0.000000E+00  5.129865E-03 -1.101926E-03  2.144939E-04 -5.005524E-03                                                                                                                                                                                                                                                                                                                                                                                                                                                                                              
  1.435000E+03  1.250000E+02 -4.975000E+03  6.098944E-09 -4.420755E-10  1.174177E-10 -6.081768E-09  3.396713E-11 -2.469437E-12  6.558961E-13 -3.387089E-11  0.000000E+00  0.000000E+00  0.000000E+00  0.000000E+00  0.000000E+00  0.000000E+00  0.000000E+00  0.000000E+00  5.130419E-03 -3.864222E-04  1.026359E-04 -5.114816E-03                                                                                                                                                                                                                                                                                                                                                                                                                                                                                              
  1.250000E+02  1.250000E+02 -4.725000E+03  1.329260E-08  9.326443E-10  5.315012E-10 -1.324919E-08  7.112619E-11  5.156959E-12  2.938805E-12 -7.087809E-11  0.000000E+00  0.000000E+00  0.000000E+00  0.000000E+00  0.000000E+00  0.000000E+00  0.000000E+00  0.000000E+00  5.645913E-03  7.746672E-04  4.414722E-04 -5.575063E-03                                                                                                                                                                                                                                                                                                                                                                                                                                                                                              
  3.750000E+02  1.250000E+02 -4.725000E+03  1.188481E-08  1.580145E-09  1.390877E-09 -1.169689E-08  6.373734E-11  8.737160E-12  7.690387E-12 -6.266553E-11  0.000000E+00  0.000000E+00  0.000000E+00  0.000000E+00  0.000000E+00  0.000000E+00  0.000000E+00  0.000000E+00  5.579931E-03  1.312428E-03  1.155148E-03 -5.298943E-03                                                                                                                                                                                                                                                                                                                                                                                                                                                                                              
  6.250000E+02  1.250000E+02 -4.725000E+03  1.117416E-08 -8.665154E-10  3.265487E-09 -1.065118E-08  6.003245E-11 -4.790821E-12  1.805535E-11 -5.705215E-11  0.000000E+00  0.000000E+00  0.000000E+00  0.000000E+00  0.000000E+00  0.000000E+00  0.000000E+00  0.000000E+00  5.615618E-03 -7.190986E-04  2.711649E-03 -4.864671E-03                                                                                                                                                                                                                                                                                                                                                                                                                                                                                              
  7.600000E+02  1.250000E+02 -4.725000E+03  1.295532E-08 -3.053785E-09  2.219442E-09 -1.239309E-08  6.946060E-11 -1.688371E-11  1.227052E-11 -6.625065E-11  0.000000E+00  0.000000E+00  0.000000E+00  0.000000E+00  0.000000E+00  0.000000E+00  0.000000E+00  0.000000E+00  6.115781E-03 -2.534410E-03  1.842468E-03 -5.252129E-03                                                                                                                                                                                                                                                                                                                                                                                                                                                                                              
  7.800000E+02  1.250000E+02 -4.725000E+03  1.371212E-08 -3.065274E-09  2.058063E-09 -1.320571E-08  7.331030E-11 -1.694604E-11  1.137726E-11 -7.041157E-11  0.000000E+00  0.000000E+00  0.000000E+00  0.000000E+00  0.000000E+00  0.000000E+00  0.000000E+00  0.000000E+00  5.736386E-03 -2.543272E-03  1.707581E-03 -4.849955E-03                                                                                                                                                                                                                                                                                                                                                                                                                                                                                              
  8.000000E+02  1.250000E+02 -4.725000E+03  1.368119E-08 -3.032990E-09  1.914770E-09 -1.320263E-08  7.314934E-11 -1.676705E-11  1.058509E-11 -7.041057E-11  0.000000E+00  0.000000E+00  0.000000E+00  0.000000E+00  0.000000E+00  0.000000E+00  0.000000E+00  0.000000E+00  5.715253E-03 -2.516463E-03  1.588695E-03 -4.879301E-03                                                                                                                                                                                                                                                                                                                                                                                                                                                                                              
  9.350000E+02  1.250000E+02 -4.725000E+03  1.348509E-08 -2.543566E-09  1.051618E-09 -1.320121E-08  7.212819E-11 -1.406149E-11  5.813422E-12 -7.050500E-11  0.000000E+00  0.000000E+00  0.000000E+00  0.000000E+00  0.000000E+00  0.000000E+00  0.000000E+00  0.000000E+00  5.578484E-03 -2.110589E-03  8.725154E-04 -5.089559E-03                                                                                                                                                                                                                                                                                                                                                                                                                                                                                              
  1.185000E+03  1.250000E+02 -4.725000E+03  1.306370E-08 -1.577301E-09  4.587243E-10 -1.296001E-08  6.989457E-11 -8.720000E-12  2.535941E-12 -6.930210E-11  0.000000E+00  0.000000E+00  0.000000E+00  0.000000E+00  0.000000E+00  0.000000E+00  0.000000E+00  0.000000E+00  5.351819E-03 -1.309146E-03  3.806965E-04 -5.175247E-03                                                                                                                                                                                                                                                                                                                                                                                                                                                                                              