Title="TOUGHREACT V3.30-OMP flowvector.tec: Liq & Gas Fluxes (kg/s/m^2), Pore Velocities (m/s), & Heat Fluxes (J/s/m2)"                                                                                                                                                                                                                                                                                                                                                                                                                                                                                                                                                                                                                                                                                                         
Variables= "X(m)"     "Y(m)"      "Z(m)"     "FluxLiq"   "FluxLiq_X"   "FluxLiq_Y"   "FluxLiq_Z"   "PorVelLiq"  "PorVelLiqX"  "PorVelLiqY"  "PorVelLiqZ"     "FluxGas"   "FluxGas_X"   "FluxGas_Y"   "FluxGas_Z"   "PorVelGas"  "PorVelGasX"  "PorVelGasY"  "PorVelGasZ"    "HeatFlux"  "HeatFlux_X"  "HeatFlux_Y"  "HeatFlux_Z"                                                                                                                                                                                                                                                                                                                                                                                                                                                                                                
Zone T= "5.00000000E-02 sec" I=     9 J=    10 K=    23 F=Point
  1.250000E+02  1.250000E+02 -5.425000E+03  3.557086E-07  0.000000E+00  0.000000E+00  3.557086E-07  2.011395E-09  0.000000E+00  0.000000E+00  2.011395E-09  0.000000E+00  0.000000E+00  0.000000E+00  0.000000E+00  0.000000E+00  0.000000E+00  0.000000E+00  0.000000E+00  3.379773E-01  0.000000E+00  0.000000E+00  3.379773E-01                                                                                                                                                                                                                                                                                                                                                                                                                                                                                              
  3.750000E+02  1.250000E+02 -5.425000E+03  3.557086E-07  0.000000E+00  0.000000E+00  3.557086E-07  2.011395E-09  0.000000E+00  0.000000E+00  2.011395E-09  0.000000E+00  0.000000E+00  0.000000E+00  0.000000E+00  0.000000E+00  0.000000E+00  0.000000E+00  0.000000E+00  3.379773E-01  0.000000E+00  0.000000E+00  3.379773E-01                                                                                                                                                                                                                                                                                                                                                                                                                                                                                              
  6.250000E+02  1.250000E+02 -5.425000E+03  3.557086E-07  0.000000E+00  0.000000E+00  3.557086E-07  2.011395E-09  0.000000E+00  0.000000E+00  2.011395E-09  0.000000E+00  0.000000E+00  0.000000E+00  0.000000E+00  0.000000E+00  0.000000E+00  0.000000E+00  0.000000E+00  3.379773E-01  0.000000E+00  0.000000E+00  3.379773E-01                                                                                                                                                                                                                                                                                                                                                                                                                                                                                              
  7.600000E+02  1.250000E+02 -5.425000E+03  3.557086E-07  0.000000E+00  0.000000E+00  3.557086E-07  2.011395E-09  0.000000E+00  0.000000E+00  2.011395E-09  0.000000E+00  0.000000E+00  0.000000E+00  0.000000E+00  0.000000E+00  0.000000E+00  0.000000E+00  0.000000E+00  3.379773E-01  0.000000E+00  0.000000E+00  3.379773E-01                                                                                                                                                                                                                                                                                                                                                                                                                                                                                              
  7.800000E+02  1.250000E+02 -5.425000E+03  3.557086E-07  0.000000E+00  0.000000E+00  3.557086E-07  2.011395E-09  0.000000E+00  0.000000E+00  2.011395E-09  0.000000E+00  0.000000E+00  0.000000E+00  0.000000E+00  0.000000E+00  0.000000E+00  0.000000E+00  0.000000E+00  3.379773E-01  0.000000E+00  0.000000E+00  3.379773E-01                                                                                                                                                                                                                                                                                                                                                                                                                                                                                              
  8.000000E+02  1.250000E+02 -5.425000E+03  3.557086E-07  0.000000E+00  0.000000E+00  3.557086E-07  2.011395E-09  0.000000E+00  0.000000E+00  2.011395E-09  0.000000E+00  0.000000E+00  0.000000E+00  0.000000E+00  0.000000E+00  0.000000E+00  0.000000E+00  0.000000E+00  3.379773E-01  0.000000E+00  0.000000E+00  3.379773E-01                                                                                                                                                                                                                                                                                                                                                                                                                                                                                              
  9.350000E+02  1.250000E+02 -5.425000E+03  3.557086E-07  0.000000E+00  0.000000E+00  3.557086E-07  2.011395E-09  0.000000E+00  0.000000E+00  2.011395E-09  0.000000E+00  0.000000E+00  0.000000E+00  0.000000E+00  0.000000E+00  0.000000E+00  0.000000E+00  0.000000E+00  3.379773E-01  0.000000E+00  0.000000E+00  3.379773E-01                                                                                                                                                                                                                                                                                                                                                                                                                                                                                              
  1.185000E+03  1.250000E+02 -5.425000E+03  3.557086E-07  0.000000E+00  0.000000E+00  3.557086E-07  2.011395E-09  0.000000E+00  0.000000E+00  2.011395E-09  0.000000E+00  0.000000E+00  0.000000E+00  0.000000E+00  0.000000E+00  0.000000E+00  0.000000E+00  0.000000E+00  3.379773E-01  0.000000E+00  0.000000E+00  3.379773E-01                                                                                                                                                                                                                                                                                                                                                                                                                                                                                              
  1.435000E+03  1.250000E+02 -5.425000E+03  3.557086E-07  0.000000E+00  0.000000E+00  3.557086E-07  2.011395E-09  0.000000E+00  0.000000E+00  2.011395E-09  0.000000E+00  0.000000E+00  0.000000E+00  0.000000E+00  0.000000E+00  0.000000E+00  0.000000E+00  0.000000E+00  3.379773E-01  0.000000E+00  0.000000E+00  3.379773E-01                                                                                                                                                                                                                                                                                                                                                                                                                                                                                              
  1.250000E+02  1.250000E+02 -5.225000E+03  6.805140E-07  0.000000E+00  0.000000E+00  6.805140E-07  3.832713E-09  0.000000E+00  0.000000E+00  3.832713E-09  0.000000E+00  0.000000E+00  0.000000E+00  0.000000E+00  0.000000E+00  0.000000E+00  0.000000E+00  0.000000E+00  6.356260E-01  0.000000E+00  0.000000E+00  6.356260E-01                                                                                                                                                                                                                                                                                                                                                                                                                                                                                              
  3.750000E+02  1.250000E+02 -5.225000E+03  6.805140E-07  0.000000E+00  0.000000E+00  6.805140E-07  3.832713E-09  0.000000E+00  0.000000E+00  3.832713E-09  0.000000E+00  0.000000E+00  0.000000E+00  0.000000E+00  0.000000E+00  0.000000E+00  0.000000E+00  0.000000E+00  6.356260E-01  0.000000E+00  0.000000E+00  6.356260E-01                                                                                                                                                                                                                                                                                                                                                                                                                                                                                              
  6.250000E+02  1.250000E+02 -5.225000E+03  6.805140E-07  0.000000E+00  0.000000E+00  6.805140E-07  3.832713E-09  0.000000E+00  0.000000E+00  3.832713E-09  0.000000E+00  0.000000E+00  0.000000E+00  0.000000E+00  0.000000E+00  0.000000E+00  0.000000E+00  0.000000E+00  6.356260E-01  0.000000E+00  0.000000E+00  6.356260E-01                                                                                                                                                                                                                                                                                                                                                                                                                                                                                              
  7.600000E+02  1.250000E+02 -5.225000E+03  6.805140E-07  0.000000E+00  0.000000E+00  6.805140E-07  3.832713E-09  0.000000E+00  0.000000E+00  3.832713E-09  0.000000E+00  0.000000E+00  0.000000E+00  0.000000E+00  0.000000E+00  0.000000E+00  0.000000E+00  0.000000E+00  6.356260E-01  0.000000E+00  0.000000E+00  6.356260E-01                                                                                                                                                                                                                                                                                                                                                                                                                                                                                              
  7.800000E+02  1.250000E+02 -5.225000E+03  6.805140E-07  0.000000E+00  0.000000E+00  6.805140E-07  3.832713E-09  0.000000E+00  0.000000E+00  3.832713E-09  0.000000E+00  0.000000E+00  0.000000E+00  0.000000E+00  0.000000E+00  0.000000E+00  0.000000E+00  0.000000E+00  6.356260E-01  0.000000E+00  0.000000E+00  6.356260E-01                                                                                                                                                                                                                                                                                                                                                                                                                                                                                              
  8.000000E+02  1.250000E+02 -5.225000E+03  6.805140E-07  0.000000E+00  0.000000E+00  6.805140E-07  3.832713E-09  0.000000E+00  0.000000E+00  3.832713E-09  0.000000E+00  0.000000E+00  0.000000E+00  0.000000E+00  0.000000E+00  0.000000E+00  0.000000E+00  0.000000E+00  6.356260E-01  0.000000E+00  0.000000E+00  6.356260E-01                                                                                                                                                                                                                                                                                                                                                                                                                                                                                              
  9.350000E+02  1.250000E+02 -5.225000E+03  6.805140E-07  0.000000E+00  0.000000E+00  6.805140E-07  3.832713E-09  0.000000E+00  0.000000E+00  3.832713E-09  0.000000E+00  0.000000E+00  0.000000E+00  0.000000E+00  0.000000E+00  0.000000E+00  0.000000E+00  0.000000E+00  6.356260E-01  0.000000E+00  0.000000E+00  6.356260E-01                                                                                                                                                                                                                                                                                                                                                                                                                                                                                              
  1.185000E+03  1.250000E+02 -5.225000E+03  6.805140E-07  0.000000E+00  0.000000E+00  6.805140E-07  3.832713E-09  0.000000E+00  0.000000E+00  3.832713E-09  0.000000E+00  0.000000E+00  0.000000E+00  0.000000E+00  0.000000E+00  0.000000E+00  0.000000E+00  0.000000E+00  6.356260E-01  0.000000E+00  0.000000E+00  6.356260E-01                                                                                                                                                                                                                                                                                                                                                                                                                                                                                              
  1.435000E+03  1.250000E+02 -5.225000E+03  6.805140E-07  0.000000E+00  0.000000E+00  6.805140E-07  3.832713E-09  0.000000E+00  0.000000E+00  3.832713E-09  0.000000E+00  0.000000E+00  0.000000E+00  0.000000E+00  0.000000E+00  0.000000E+00  0.000000E+00  0.000000E+00  6.356260E-01  0.000000E+00  0.000000E+00  6.356260E-01                                                                                                                                                                                                                                                                                                                                                                                                                                                                                              
  1.250000E+02  1.250000E+02 -4.975000E+03  6.151642E-07  0.000000E+00  0.000000E+00  6.151642E-07  3.434850E-09  0.000000E+00  0.000000E+00  3.434850E-09  0.000000E+00  0.000000E+00  0.000000E+00  0.000000E+00  0.000000E+00  0.000000E+00  0.000000E+00  0.000000E+00  5.515051E-01  0.000000E+00  0.000000E+00  5.515051E-01                                                                                                                                                                                                                                                                                                                                                                                                                                                                                              
  3.750000E+02  1.250000E+02 -4.975000E+03  6.151642E-07  0.000000E+00  0.000000E+00  6.151642E-07  3.434850E-09  0.000000E+00  0.000000E+00  3.434850E-09  0.000000E+00  0.000000E+00  0.000000E+00  0.000000E+00  0.000000E+00  0.000000E+00  0.000000E+00  0.000000E+00  5.515051E-01  0.000000E+00  0.000000E+00  5.515051E-01                                                                                                                                                                                                                                                                                                                                                                                                                                                                                              
  6.250000E+02  1.250000E+02 -4.975000E+03  6.151642E-07  0.000000E+00  0.000000E+00  6.151642E-07  3.434850E-09  0.000000E+00  0.000000E+00  3.434850E-09  0.000000E+00  0.000000E+00  0.000000E+00  0.000000E+00  0.000000E+00  0.000000E+00  0.000000E+00  0.000000E+00  5.515051E-01  0.000000E+00  0.000000E+00  5.515051E-01                                                                                                                                                                                                                                                                                                                                                                                                                                                                                              
  7.600000E+02  1.250000E+02 -4.975000E+03  6.151642E-07  0.000000E+00  0.000000E+00  6.151642E-07  3.434850E-09  0.000000E+00  0.000000E+00  3.434850E-09  0.000000E+00  0.000000E+00  0.000000E+00  0.000000E+00  0.000000E+00  0.000000E+00  0.000000E+00  0.000000E+00  5.515051E-01  0.000000E+00  0.000000E+00  5.515051E-01                                                                                                                                                                                                                                                                                                                                                                                                                                                                                              
  7.800000E+02  1.250000E+02 -4.975000E+03  6.151642E-07  0.000000E+00  0.000000E+00  6.151642E-07  3.434850E-09  0.000000E+00  0.000000E+00  3.434850E-09  0.000000E+00  0.000000E+00  0.000000E+00  0.000000E+00  0.000000E+00  0.000000E+00  0.000000E+00  0.000000E+00  5.515051E-01  0.000000E+00  0.000000E+00  5.515051E-01                                                                                                                                                                                                                                                                                                                                                                                                                                                                                              
  8.000000E+02  1.250000E+02 -4.975000E+03  6.151642E-07  0.000000E+00  0.000000E+00  6.151642E-07  3.434850E-09  0.000000E+00  0.000000E+00  3.434850E-09  0.000000E+00  0.000000E+00  0.000000E+00  0.000000E+00  0.000000E+00  0.000000E+00  0.000000E+00  0.000000E+00  5.515051E-01  0.000000E+00  0.000000E+00  5.515051E-01                                                                                                                                                                                                                                                                                                                                                                                                                                                                                              
  9.350000E+02  1.250000E+02 -4.975000E+03  6.151642E-07  0.000000E+00  0.000000E+00  6.151642E-07  3.434850E-09  0.000000E+00  0.000000E+00  3.434850E-09  0.000000E+00  0.000000E+00  0.000000E+00  0.000000E+00  0.000000E+00  0.000000E+00  0.000000E+00  0.000000E+00  5.515051E-01  0.000000E+00  0.000000E+00  5.515051E-01                                                                                                                                                                                                                                                                                                                                                                                                                                                                                              
  1.185000E+03  1.250000E+02 -4.975000E+03  6.151642E-07  0.000000E+00  0.000000E+00  6.151642E-07  3.434850E-09  0.000000E+00  0.000000E+00  3.434850E-09  0.000000E+00  0.000000E+00  0.000000E+00  0.000000E+00  0.000000E+00  0.000000E+00  0.000000E+00  0.000000E+00  5.515051E-01  0.000000E+00  0.000000E+00  5.515051E-01                                                                                                                                                                                                                                                                                                                                                                                                                                                                                              
  1.435000E+03  1.250000E+02 -4.975000E+03  6.151642E-07  0.000000E+00  0.000000E+00  6.151642E-07  3.434850E-09  0.000000E+00  0.000000E+00  3.434850E-09  0.000000E+00  0.000000E+00  0.000000E+00  0.000000E+00  0.000000E+00  0.000000E+00  0.000000E+00  0.000000E+00  5.515051E-01  0.000000E+00  0.000000E+00  5.515051E-01                                                                                                                                                                                                                                                                                                                                                                                                                                                                                              
  1.250000E+02  1.250000E+02 -4.725000E+03  6.550871E-07  0.000000E+00  0.000000E+00  6.550871E-07  3.625310E-09  0.000000E+00  0.000000E+00  3.625310E-09  0.000000E+00  0.000000E+00  0.000000E+00  0.000000E+00  0.000000E+00  0.000000E+00  0.000000E+00  0.000000E+00  5.574121E-01  0.000000E+00  0.000000E+00  5.574121E-01                                                                                                                                                                                                                                                                                                                                                                                                                                                                                              
  3.750000E+02  1.250000E+02 -4.725000E+03  6.550871E-07  0.000000E+00  0.000000E+00  6.550871E-07  3.625310E-09  0.000000E+00  0.000000E+00  3.625310E-09  0.000000E+00  0.000000E+00  0.000000E+00  0.000000E+00  0.000000E+00  0.000000E+00  0.000000E+00  0.000000E+00  5.574121E-01  0.000000E+00  0.000000E+00  5.574121E-01                                                                                                                                                                                                                                                                                                                                                                                                                                                                                              
  6.250000E+02  1.250000E+02 -4.725000E+03  6.550884E-07  1.321971E-19  0.000000E+00  6.550884E-07  3.625317E-09  7.313792E-22  0.000000E+00  3.625317E-09  0.000000E+00  0.000000E+00  0.000000E+00  0.000000E+00  0.000000E+00  0.000000E+00  0.000000E+00  0.000000E+00  5.574132E-01  1.100249E-13  0.000000E+00  5.574132E-01                                                                                                                                                                                                                                                                                                                                                                                                                                                                                              
  7.600000E+02  1.250000E+02 -4.725000E+03  6.551914E-07  1.321971E-19  0.000000E+00  6.551914E-07  3.625885E-09  7.313792E-22  0.000000E+00  3.625885E-09  0.000000E+00  0.000000E+00  0.000000E+00  0.000000E+00  0.000000E+00  0.000000E+00  0.000000E+00  0.000000E+00  5.574989E-01  1.100249E-13  0.000000E+00  5.574989E-01                                                                                                                                                                                                                                                                                                                                                                                                                                                                                              
  7.800000E+02  1.250000E+02 -4.725000E+03  6.551952E-07  0.000000E+00  0.000000E+00  6.551952E-07  3.625907E-09  0.000000E+00  0.000000E+00  3.625907E-09  0.000000E+00  0.000000E+00  0.000000E+00  0.000000E+00  0.000000E+00  0.000000E+00  0.000000E+00  0.000000E+00  5.575021E-01  0.000000E+00  0.000000E+00  5.575021E-01                                                                                                                                                                                                                                                                                                                                                                                                                                                                                              
  8.000000E+02  1.250000E+02 -4.725000E+03  6.551914E-07 -1.321971E-19  0.000000E+00  6.551914E-07  3.625885E-09 -7.313792E-22  0.000000E+00  3.625885E-09  0.000000E+00  0.000000E+00  0.000000E+00  0.000000E+00  0.000000E+00  0.000000E+00  0.000000E+00  0.000000E+00  5.574989E-01 -1.100249E-13  0.000000E+00  5.574989E-01                                                                                                                                                                                                                                                                                                                                                                                                                                                                                              
  9.350000E+02  1.250000E+02 -4.725000E+03  6.550884E-07 -1.321971E-19  0.000000E+00  6.550884E-07  3.625317E-09 -7.313792E-22  0.000000E+00  3.625317E-09  0.000000E+00  0.000000E+00  0.000000E+00  0.000000E+00  0.000000E+00  0.000000E+00  0.000000E+00  0.000000E+00  5.574132E-01 -1.100249E-13  0.000000E+00  5.574132E-01                                                                                                                                                                                                                                                                                                                                                                                                                                                                                              
  1.185000E+03  1.250000E+02 -4.725000E+03  6.550871E-07  0.000000E+00  0.000000E+00  6.550871E-07  3.625310E-09  0.000000E+00  0.000000E+00  3.625310E-09  0.000000E+00  0.000000E+00  0.000000E+00  0.000000E+00  0.000000E+00  0.000000E+00  0.000000E+00  0.000000E+00  5.574121E-01  0.000000E+00  0.000000E+00  5.574121E-01                                                                                                                                                                                                                                                                                                                                                                                                                                                                                              