Title="TOUGHREACT V3.30-OMP flowvector.tec: Liq & Gas Fluxes (kg/s/m^2), Pore Velocities (m/s), & Heat Fluxes (J/s/m2)"                                                                                                                                                                                                                                                                                                                                                                                                                                                                                                                                                                                                                                                                                                         
Variables= "X(m)"     "Y(m)"      "Z(m)"     "FluxLiq"   "FluxLiq_X"   "FluxLiq_Y"   "FluxLiq_Z"   "PorVelLiq"  "PorVelLiqX"  "PorVelLiqY"  "PorVelLiqZ"     "FluxGas"   "FluxGas_X"   "FluxGas_Y"   "FluxGas_Z"   "PorVelGas"  "PorVelGasX"  "PorVelGasY"  "PorVelGasZ"    "HeatFlux"  "HeatFlux_X"  "HeatFlux_Y"  "HeatFlux_Z"                                                                                                                                                                                                                                                                                                                                                                                                                                                                                                
Zone T= "1.00000000E+06 sec" I=     9 J=    10 K=    23 F=Point
  1.250000E+02  1.250000E+02 -5.425000E+03  3.441263E-07  1.459340E-16  1.178173E-17  3.441263E-07  1.945941E-09  8.283562E-19  6.687595E-20  1.945941E-09  0.000000E+00  0.000000E+00  0.000000E+00  0.000000E+00  0.000000E+00  0.000000E+00  0.000000E+00  0.000000E+00  3.269710E-01  1.386589E-10  1.119440E-11  3.269710E-01                                                                                                                                                                                                                                                                                                                                                                                                                                                                                              
  3.750000E+02  1.250000E+02 -5.425000E+03  3.441263E-07  4.446121E-18 -1.673863E-16  3.441263E-07  1.945941E-09  2.523725E-20 -9.501245E-19  1.945941E-09  0.000000E+00  0.000000E+00  0.000000E+00  0.000000E+00  0.000000E+00  0.000000E+00  0.000000E+00  0.000000E+00  3.269710E-01  4.224475E-12 -1.590418E-10  3.269710E-01                                                                                                                                                                                                                                                                                                                                                                                                                                                                                              
  6.250000E+02  1.250000E+02 -5.425000E+03  3.441263E-07  1.102216E-17  1.472863E-16  3.441263E-07  1.945941E-09  6.256441E-20  8.360323E-19  1.945941E-09  0.000000E+00  0.000000E+00  0.000000E+00  0.000000E+00  0.000000E+00  0.000000E+00  0.000000E+00  0.000000E+00  3.269710E-01  1.047268E-11  1.399438E-10  3.269710E-01                                                                                                                                                                                                                                                                                                                                                                                                                                                                                              
  7.600000E+02  1.250000E+02 -5.425000E+03  3.441263E-07  1.585906E-16  1.014241E-16  3.441263E-07  1.945941E-09  9.001982E-19  5.757075E-19  1.945941E-09  0.000000E+00  0.000000E+00  0.000000E+00  0.000000E+00  0.000000E+00  0.000000E+00  0.000000E+00  0.000000E+00  3.269710E-01  1.506846E-10  9.636794E-11  3.269710E-01                                                                                                                                                                                                                                                                                                                                                                                                                                                                                              
  7.800000E+02  1.250000E+02 -5.425000E+03  3.441263E-07  2.153742E-16  5.267243E-17  3.441263E-07  1.945941E-09  1.222516E-18  2.989814E-19  1.945941E-09  0.000000E+00  0.000000E+00  0.000000E+00  0.000000E+00  0.000000E+00  0.000000E+00  0.000000E+00  0.000000E+00  3.269710E-01  2.046374E-10  5.004662E-11  3.269710E-01                                                                                                                                                                                                                                                                                                                                                                                                                                                                                              
  8.000000E+02  1.250000E+02 -5.425000E+03  3.441263E-07  4.590749E-16  5.068773E-18  3.441263E-07  1.945941E-09  2.605819E-18  2.877157E-20  1.945941E-09  0.000000E+00  0.000000E+00  0.000000E+00  0.000000E+00  0.000000E+00  0.000000E+00  0.000000E+00  0.000000E+00  3.269710E-01  4.361892E-10  4.816086E-12  3.269710E-01                                                                                                                                                                                                                                                                                                                                                                                                                                                                                              
  9.350000E+02  1.250000E+02 -5.425000E+03  3.441263E-07  4.080515E-16 -2.021769E-16  3.441263E-07  1.945941E-09  2.316198E-18 -1.147605E-18  1.945941E-09  0.000000E+00  0.000000E+00  0.000000E+00  0.000000E+00  0.000000E+00  0.000000E+00  0.000000E+00  0.000000E+00  3.269710E-01  3.877095E-10 -1.920980E-10  3.269710E-01                                                                                                                                                                                                                                                                                                                                                                                                                                                                                              
  1.185000E+03  1.250000E+02 -5.425000E+03  3.441263E-07 -3.051576E-16 -1.285581E-16  3.441263E-07  1.945941E-09 -1.732148E-18 -7.297266E-19  1.945941E-09  0.000000E+00  0.000000E+00  0.000000E+00  0.000000E+00  0.000000E+00  0.000000E+00  0.000000E+00  0.000000E+00  3.269710E-01 -2.899450E-10 -1.221493E-10  3.269710E-01                                                                                                                                                                                                                                                                                                                                                                                                                                                                                              
  1.435000E+03  1.250000E+02 -5.425000E+03  3.441263E-07 -4.634279E-16  8.155763E-17  3.441263E-07  1.945941E-09 -2.630528E-18  4.629406E-19  1.945941E-09  0.000000E+00  0.000000E+00  0.000000E+00  0.000000E+00  0.000000E+00  0.000000E+00  0.000000E+00  0.000000E+00  3.269710E-01 -4.403252E-10  7.749184E-11  3.269710E-01                                                                                                                                                                                                                                                                                                                                                                                                                                                                                              
  1.250000E+02  1.250000E+02 -5.225000E+03  6.690286E-07  2.299994E-17 -6.156791E-17  6.690286E-07  3.767801E-09  1.295650E-19 -3.468290E-19  3.767801E-09  0.000000E+00  0.000000E+00  0.000000E+00  0.000000E+00  0.000000E+00  0.000000E+00  0.000000E+00  0.000000E+00  6.247087E-01  2.107695E-11 -5.642029E-11  6.247087E-01                                                                                                                                                                                                                                                                                                                                                                                                                                                                                              
  3.750000E+02  1.250000E+02 -5.225000E+03  6.690286E-07  7.495679E-17  7.584177E-18  6.690286E-07  3.767801E-09  4.222522E-19  4.272375E-20  3.767801E-09  0.000000E+00  0.000000E+00  0.000000E+00  0.000000E+00  0.000000E+00  0.000000E+00  0.000000E+00  0.000000E+00  6.247087E-01  6.868974E-11  6.950073E-12  6.247087E-01                                                                                                                                                                                                                                                                                                                                                                                                                                                                                              
  6.250000E+02  1.250000E+02 -5.225000E+03  6.690287E-07  8.550922E-17  1.768055E-17  6.690287E-07  3.767801E-09  4.816970E-19  9.959941E-20  3.767801E-09  0.000000E+00  0.000000E+00  0.000000E+00  0.000000E+00  0.000000E+00  0.000000E+00  0.000000E+00  0.000000E+00  6.247087E-01  7.835990E-11  1.620230E-11  6.247087E-01                                                                                                                                                                                                                                                                                                                                                                                                                                                                                              
  7.600000E+02  1.250000E+02 -5.225000E+03  6.690287E-07 -1.600963E-16  9.506389E-18  6.690287E-07  3.767801E-09 -9.018665E-19  5.355211E-20  3.767801E-09  0.000000E+00  0.000000E+00  0.000000E+00  0.000000E+00  0.000000E+00  0.000000E+00  0.000000E+00  0.000000E+00  6.247087E-01 -1.467108E-10  8.711572E-12  6.247087E-01                                                                                                                                                                                                                                                                                                                                                                                                                                                                                              
  7.800000E+02  1.250000E+02 -5.225000E+03  6.690287E-07 -4.643762E-16  1.722379E-17  6.690287E-07  3.767801E-09 -2.615959E-18  9.702634E-20  3.767801E-09  0.000000E+00  0.000000E+00  0.000000E+00  0.000000E+00  0.000000E+00  0.000000E+00  0.000000E+00  0.000000E+00  6.247087E-01 -4.255503E-10  1.578373E-11  6.247087E-01                                                                                                                                                                                                                                                                                                                                                                                                                                                                                              
  8.000000E+02  1.250000E+02 -5.225000E+03  6.690287E-07 -2.382677E-16  4.777936E-17  6.690287E-07  3.767801E-09 -1.342227E-18  2.691543E-19  3.767801E-09  0.000000E+00  0.000000E+00  0.000000E+00  0.000000E+00  0.000000E+00  0.000000E+00  0.000000E+00  0.000000E+00  6.247087E-01 -2.183464E-10  4.378459E-11  6.247087E-01                                                                                                                                                                                                                                                                                                                                                                                                                                                                                              
  9.350000E+02  1.250000E+02 -5.225000E+03  6.690287E-07 -9.051423E-17 -2.388492E-18  6.690287E-07  3.767801E-09 -5.098916E-19 -1.345503E-20  3.767801E-09  0.000000E+00  0.000000E+00  0.000000E+00  0.000000E+00  0.000000E+00  0.000000E+00  0.000000E+00  0.000000E+00  6.247087E-01 -8.294645E-11 -2.188793E-12  6.247087E-01                                                                                                                                                                                                                                                                                                                                                                                                                                                                                              
  1.185000E+03  1.250000E+02 -5.225000E+03  6.690286E-07 -6.544088E-17 -1.173311E-17  6.690286E-07  3.767801E-09 -3.686465E-19 -6.609584E-20  3.767801E-09  0.000000E+00  0.000000E+00  0.000000E+00  0.000000E+00  0.000000E+00  0.000000E+00  0.000000E+00  0.000000E+00  6.247087E-01 -5.996945E-11 -1.075212E-11  6.247087E-01                                                                                                                                                                                                                                                                                                                                                                                                                                                                                              
  1.435000E+03  1.250000E+02 -5.225000E+03  6.690286E-07  5.753316E-17 -2.160111E-18  6.690286E-07  3.767801E-09  3.241001E-19 -1.216850E-20  3.767801E-09  0.000000E+00  0.000000E+00  0.000000E+00  0.000000E+00  0.000000E+00  0.000000E+00  0.000000E+00  0.000000E+00  6.247087E-01  5.272289E-11 -1.979506E-12  6.247087E-01                                                                                                                                                                                                                                                                                                                                                                                                                                                                                              
  1.250000E+02  1.250000E+02 -4.975000E+03  6.464292E-07  3.525175E-15 -2.393880E-16  6.464292E-07  3.608606E-09  1.967675E-17 -1.336211E-18  3.608606E-09  0.000000E+00  0.000000E+00  0.000000E+00  0.000000E+00  0.000000E+00  0.000000E+00  0.000000E+00  0.000000E+00  5.788440E-01  3.082009E-09 -2.092935E-10  5.788440E-01                                                                                                                                                                                                                                                                                                                                                                                                                                                                                              
  3.750000E+02  1.250000E+02 -4.975000E+03  6.464295E-07  1.060382E-14 -1.064716E-16  6.464295E-07  3.608608E-09  5.918816E-17 -5.943010E-19  3.608608E-09  0.000000E+00  0.000000E+00  0.000000E+00  0.000000E+00  0.000000E+00  0.000000E+00  0.000000E+00  0.000000E+00  5.788442E-01  9.270763E-09 -9.308659E-11  5.788442E-01                                                                                                                                                                                                                                                                                                                                                                                                                                                                                              
  6.250000E+02  1.250000E+02 -4.975000E+03  6.464302E-07  1.573464E-14 -1.498448E-16  6.464302E-07  3.608611E-09  8.782726E-17 -8.364007E-19  3.608611E-09  0.000000E+00  0.000000E+00  0.000000E+00  0.000000E+00  0.000000E+00  0.000000E+00  0.000000E+00  0.000000E+00  5.788448E-01  1.375656E-08 -1.310072E-10  5.788448E-01                                                                                                                                                                                                                                                                                                                                                                                                                                                                                              
  7.600000E+02  1.250000E+02 -4.975000E+03  6.464306E-07  1.196921E-14 -1.512940E-16  6.464306E-07  3.608614E-09  6.680951E-17 -8.444896E-19  3.608614E-09  0.000000E+00  0.000000E+00  0.000000E+00  0.000000E+00  0.000000E+00  0.000000E+00  0.000000E+00  0.000000E+00  5.788452E-01  1.046451E-08 -1.322741E-10  5.788452E-01                                                                                                                                                                                                                                                                                                                                                                                                                                                                                              
  7.800000E+02  1.250000E+02 -4.975000E+03  6.464306E-07  8.519575E-16 -1.814309E-16  6.464306E-07  3.608614E-09  4.755439E-18 -1.012707E-18  3.608614E-09  0.000000E+00  0.000000E+00  0.000000E+00  0.000000E+00  0.000000E+00  0.000000E+00  0.000000E+00  0.000000E+00  5.788452E-01  7.448541E-10 -1.586225E-10  5.788452E-01                                                                                                                                                                                                                                                                                                                                                                                                                                                                                              
  8.000000E+02  1.250000E+02 -4.975000E+03  6.464306E-07 -1.091838E-14 -2.085865E-16  6.464306E-07  3.608614E-09 -6.094398E-17 -1.164284E-18  3.608614E-09  0.000000E+00  0.000000E+00  0.000000E+00  0.000000E+00  0.000000E+00  0.000000E+00  0.000000E+00  0.000000E+00  5.788452E-01 -9.545780E-09 -1.823642E-10  5.788452E-01                                                                                                                                                                                                                                                                                                                                                                                                                                                                                              
  9.350000E+02  1.250000E+02 -4.975000E+03  6.464302E-07 -1.532258E-14 -1.540077E-16  6.464302E-07  3.608611E-09 -8.552727E-17 -8.596370E-19  3.608611E-09  0.000000E+00  0.000000E+00  0.000000E+00  0.000000E+00  0.000000E+00  0.000000E+00  0.000000E+00  0.000000E+00  5.788448E-01 -1.339631E-08 -1.346467E-10  5.788448E-01                                                                                                                                                                                                                                                                                                                                                                                                                                                                                              
  1.185000E+03  1.250000E+02 -4.975000E+03  6.464296E-07 -1.037004E-14 -1.179357E-16  6.464296E-07  3.608608E-09 -5.788327E-17 -6.582908E-19  3.608608E-09  0.000000E+00  0.000000E+00  0.000000E+00  0.000000E+00  0.000000E+00  0.000000E+00  0.000000E+00  0.000000E+00  5.788443E-01 -9.066376E-09 -1.031094E-10  5.788443E-01                                                                                                                                                                                                                                                                                                                                                                                                                                                                                              
  1.435000E+03  1.250000E+02 -4.975000E+03  6.464293E-07 -3.504573E-15 -2.207890E-17  6.464293E-07  3.608606E-09 -1.956175E-17 -1.232395E-19  3.608606E-09  0.000000E+00  0.000000E+00  0.000000E+00  0.000000E+00  0.000000E+00  0.000000E+00  0.000000E+00  0.000000E+00  5.788440E-01 -3.063997E-09 -1.930326E-11  5.788440E-01                                                                                                                                                                                                                                                                                                                                                                                                                                                                                              
  1.250000E+02  1.250000E+02 -4.725000E+03  3.198016E-06  3.039563E-13 -1.843761E-14  3.198016E-06  1.765895E-08  1.681766E-15 -1.020138E-16  1.765895E-08  0.000000E+00  0.000000E+00  0.000000E+00  0.000000E+00  0.000000E+00  0.000000E+00  0.000000E+00  0.000000E+00  2.675094E+00  2.529707E-07 -1.534489E-08  2.675094E+00                                                                                                                                                                                                                                                                                                                                                                                                                                                                                              
  3.750000E+02  1.250000E+02 -4.725000E+03  3.198025E-06  9.124447E-13 -2.266038E-14  3.198025E-06  1.765901E-08  5.048483E-15 -1.253781E-16  1.765901E-08  0.000000E+00  0.000000E+00  0.000000E+00  0.000000E+00  0.000000E+00  0.000000E+00  0.000000E+00  0.000000E+00  2.675101E+00  7.593914E-07 -1.885934E-08  2.675101E+00                                                                                                                                                                                                                                                                                                                                                                                                                                                                                              
  6.250000E+02  1.250000E+02 -4.725000E+03  3.198043E-06  1.391206E-12 -2.556110E-14  3.198043E-06  1.765911E-08  7.697429E-15 -1.414275E-16  1.765911E-08  0.000000E+00  0.000000E+00  0.000000E+00  0.000000E+00  0.000000E+00  0.000000E+00  0.000000E+00  0.000000E+00  2.675117E+00  1.157845E-06 -2.127348E-08  2.675117E+00                                                                                                                                                                                                                                                                                                                                                                                                                                                                                              
  7.600000E+02  1.250000E+02 -4.725000E+03  3.198059E-06  1.057353E-12 -2.296428E-14  3.198059E-06  1.765920E-08  5.850248E-15 -1.270595E-16  1.765920E-08  0.000000E+00  0.000000E+00  0.000000E+00  0.000000E+00  0.000000E+00  0.000000E+00  0.000000E+00  0.000000E+00  2.675130E+00  8.799927E-07 -1.911226E-08  2.675130E+00                                                                                                                                                                                                                                                                                                                                                                                                                                                                                              
  7.800000E+02  1.250000E+02 -4.725000E+03  3.198060E-06  2.345889E-14 -2.249361E-14  3.198060E-06  1.765920E-08  1.297962E-16 -1.244554E-16  1.765920E-08  0.000000E+00  0.000000E+00  0.000000E+00  0.000000E+00  0.000000E+00  0.000000E+00  0.000000E+00  0.000000E+00  2.675130E+00  1.952390E-08 -1.872054E-08  2.675130E+00                                                                                                                                                                                                                                                                                                                                                                                                                                                                                              
  8.000000E+02  1.250000E+02 -4.725000E+03  3.198059E-06 -1.009177E-12 -2.180753E-14  3.198059E-06  1.765920E-08 -5.583694E-15 -1.206593E-16  1.765920E-08  0.000000E+00  0.000000E+00  0.000000E+00  0.000000E+00  0.000000E+00  0.000000E+00  0.000000E+00  0.000000E+00  2.675130E+00 -8.398976E-07 -1.814954E-08  2.675130E+00                                                                                                                                                                                                                                                                                                                                                                                                                                                                                              
  9.350000E+02  1.250000E+02 -4.725000E+03  3.198045E-06 -1.344878E-12 -1.804787E-14  3.198045E-06  1.765911E-08 -7.441100E-15 -9.985743E-17  1.765911E-08  0.000000E+00  0.000000E+00  0.000000E+00  0.000000E+00  0.000000E+00  0.000000E+00  0.000000E+00  0.000000E+00  2.675118E+00 -1.119288E-06 -1.502053E-08  2.675118E+00                                                                                                                                                                                                                                                                                                                                                                                                                                                                                              
  1.185000E+03  1.250000E+02 -4.725000E+03  3.198028E-06 -8.804662E-13 -1.325816E-14  3.198028E-06  1.765902E-08 -4.871549E-15 -7.335633E-17  1.765902E-08  0.000000E+00  0.000000E+00  0.000000E+00  0.000000E+00  0.000000E+00  0.000000E+00  0.000000E+00  0.000000E+00  2.675103E+00 -7.327770E-07 -1.103424E-08  2.675103E+00                                                                                                                                                                                                                                                                                                                                                                                                                                                                                              