Title="TOUGHREACT V3.30-OMP flowvector.tec: Liq & Gas Fluxes (kg/s/m^2), Pore Velocities (m/s), & Heat Fluxes (J/s/m2)"                                                                                                                                                                                                                                                                                                                                                                                                                                                                                                                                                                                                                                                                                                         
Variables= "X(m)"     "Y(m)"      "Z(m)"     "FluxLiq"   "FluxLiq_X"   "FluxLiq_Y"   "FluxLiq_Z"   "PorVelLiq"  "PorVelLiqX"  "PorVelLiqY"  "PorVelLiqZ"     "FluxGas"   "FluxGas_X"   "FluxGas_Y"   "FluxGas_Z"   "PorVelGas"  "PorVelGasX"  "PorVelGasY"  "PorVelGasZ"    "HeatFlux"  "HeatFlux_X"  "HeatFlux_Y"  "HeatFlux_Z"                                                                                                                                                                                                                                                                                                                                                                                                                                                                                                
Zone T= "7.00000000E+10 sec" I=     9 J=    10 K=    23 F=Point
  1.250000E+02  1.250000E+02 -5.425000E+03  1.009048E-06  0.000000E+00  0.000000E+00 -1.009048E-06  5.836267E-09  0.000000E+00  0.000000E+00 -5.836267E-09  0.000000E+00  0.000000E+00  0.000000E+00  0.000000E+00  0.000000E+00  0.000000E+00  0.000000E+00  0.000000E+00  9.716479E-01  0.000000E+00  0.000000E+00 -9.716479E-01                                                                                                                                                                                                                                                                                                                                                                                                                                                                                              
  3.750000E+02  1.250000E+02 -5.425000E+03  1.007772E-06  0.000000E+00  0.000000E+00 -1.007772E-06  5.827977E-09  0.000000E+00  0.000000E+00 -5.827977E-09  0.000000E+00  0.000000E+00  0.000000E+00  0.000000E+00  0.000000E+00  0.000000E+00  0.000000E+00  0.000000E+00  9.692461E-01  0.000000E+00  0.000000E+00 -9.692461E-01                                                                                                                                                                                                                                                                                                                                                                                                                                                                                              
  6.250000E+02  1.250000E+02 -5.425000E+03  1.006723E-06  0.000000E+00  0.000000E+00 -1.006723E-06  5.821092E-09  0.000000E+00  0.000000E+00 -5.821092E-09  0.000000E+00  0.000000E+00  0.000000E+00  0.000000E+00  0.000000E+00  0.000000E+00  0.000000E+00  0.000000E+00  9.671844E-01  0.000000E+00  0.000000E+00 -9.671844E-01                                                                                                                                                                                                                                                                                                                                                                                                                                                                                              
  7.600000E+02  1.250000E+02 -5.425000E+03  1.006892E-06  0.000000E+00  0.000000E+00 -1.006892E-06  5.822138E-09  0.000000E+00  0.000000E+00 -5.822138E-09  0.000000E+00  0.000000E+00  0.000000E+00  0.000000E+00  0.000000E+00  0.000000E+00  0.000000E+00  0.000000E+00  9.674356E-01  0.000000E+00  0.000000E+00 -9.674356E-01                                                                                                                                                                                                                                                                                                                                                                                                                                                                                              
  7.800000E+02  1.250000E+02 -5.425000E+03  1.006934E-06  0.000000E+00  0.000000E+00 -1.006934E-06  5.822416E-09  0.000000E+00  0.000000E+00 -5.822416E-09  0.000000E+00  0.000000E+00  0.000000E+00  0.000000E+00  0.000000E+00  0.000000E+00  0.000000E+00  0.000000E+00  9.675169E-01  0.000000E+00  0.000000E+00 -9.675169E-01                                                                                                                                                                                                                                                                                                                                                                                                                                                                                              
  8.000000E+02  1.250000E+02 -5.425000E+03  1.007002E-06  0.000000E+00  0.000000E+00 -1.007002E-06  5.822875E-09  0.000000E+00  0.000000E+00 -5.822875E-09  0.000000E+00  0.000000E+00  0.000000E+00  0.000000E+00  0.000000E+00  0.000000E+00  0.000000E+00  0.000000E+00  9.676674E-01  0.000000E+00  0.000000E+00 -9.676674E-01                                                                                                                                                                                                                                                                                                                                                                                                                                                                                              
  9.350000E+02  1.250000E+02 -5.425000E+03  1.007547E-06  0.000000E+00  0.000000E+00 -1.007547E-06  5.826568E-09  0.000000E+00  0.000000E+00 -5.826568E-09  0.000000E+00  0.000000E+00  0.000000E+00  0.000000E+00  0.000000E+00  0.000000E+00  0.000000E+00  0.000000E+00  9.688873E-01  0.000000E+00  0.000000E+00 -9.688873E-01                                                                                                                                                                                                                                                                                                                                                                                                                                                                                              
  1.185000E+03  1.250000E+02 -5.425000E+03  1.008695E-06  0.000000E+00  0.000000E+00 -1.008695E-06  5.833840E-09  0.000000E+00  0.000000E+00 -5.833840E-09  0.000000E+00  0.000000E+00  0.000000E+00  0.000000E+00  0.000000E+00  0.000000E+00  0.000000E+00  0.000000E+00  9.708090E-01  0.000000E+00  0.000000E+00 -9.708090E-01                                                                                                                                                                                                                                                                                                                                                                                                                                                                                              
  1.435000E+03  1.250000E+02 -5.425000E+03  1.010208E-06  0.000000E+00  0.000000E+00 -1.010208E-06  5.843602E-09  0.000000E+00  0.000000E+00 -5.843602E-09  0.000000E+00  0.000000E+00  0.000000E+00  0.000000E+00  0.000000E+00  0.000000E+00  0.000000E+00  0.000000E+00  9.735700E-01  0.000000E+00  0.000000E+00 -9.735700E-01                                                                                                                                                                                                                                                                                                                                                                                                                                                                                              
  1.250000E+02  1.250000E+02 -5.225000E+03  2.029099E-06  6.229700E-10  1.659756E-12 -2.029099E-06  1.152698E-08  3.543237E-12  9.441653E-15 -1.152698E-08  0.000000E+00  0.000000E+00  0.000000E+00  0.000000E+00  0.000000E+00  0.000000E+00  0.000000E+00  0.000000E+00  1.824338E+00  5.998800E-04  1.598238E-06 -1.824338E+00                                                                                                                                                                                                                                                                                                                                                                                                                                                                                              
  3.750000E+02  1.250000E+02 -5.225000E+03  2.025909E-06  1.102648E-09  5.533051E-13 -2.025909E-06  1.150500E-08  6.270664E-12  3.146523E-15 -1.150500E-08  0.000000E+00  0.000000E+00  0.000000E+00  0.000000E+00  0.000000E+00  0.000000E+00  0.000000E+00  0.000000E+00  1.817168E+00  1.061221E-03  5.321530E-07 -1.817168E+00                                                                                                                                                                                                                                                                                                                                                                                                                                                                                              
  6.250000E+02  1.250000E+02 -5.225000E+03  2.023372E-06  2.828258E-10 -1.532574E-12 -2.023372E-06  1.148729E-08  1.608274E-12 -8.712937E-15 -1.148729E-08  0.000000E+00  0.000000E+00  0.000000E+00  0.000000E+00  0.000000E+00  0.000000E+00  0.000000E+00  0.000000E+00  1.811285E+00  2.722023E-04 -1.472386E-06 -1.811285E+00                                                                                                                                                                                                                                                                                                                                                                                                                                                                                              
  7.600000E+02  1.250000E+02 -5.225000E+03  2.023662E-06 -4.509110E-10 -2.679409E-12 -2.023662E-06  1.148923E-08 -2.563557E-12 -1.523324E-14 -1.148923E-08  0.000000E+00  0.000000E+00  0.000000E+00  0.000000E+00  0.000000E+00  0.000000E+00  0.000000E+00  0.000000E+00  1.811869E+00 -4.332517E-04 -2.574418E-06 -1.811869E+00                                                                                                                                                                                                                                                                                                                                                                                                                                                                                              
  7.800000E+02  1.250000E+02 -5.225000E+03  2.023756E-06 -5.642674E-10 -2.851349E-12 -2.023756E-06  1.148989E-08 -3.208075E-12 -1.621095E-14 -1.148989E-08  0.000000E+00  0.000000E+00  0.000000E+00  0.000000E+00  0.000000E+00  0.000000E+00  0.000000E+00  0.000000E+00  1.812089E+00 -5.422049E-04 -2.739735E-06 -1.812089E+00                                                                                                                                                                                                                                                                                                                                                                                                                                                                                              
  8.000000E+02  1.250000E+02 -5.225000E+03  2.023929E-06 -6.730334E-10 -3.027882E-12 -2.023929E-06  1.149113E-08 -3.826693E-12 -1.721500E-14 -1.149113E-08  0.000000E+00  0.000000E+00  0.000000E+00  0.000000E+00  0.000000E+00  0.000000E+00  0.000000E+00  0.000000E+00  1.812521E+00 -6.469945E-04 -2.909616E-06 -1.812521E+00                                                                                                                                                                                                                                                                                                                                                                                                                                                                                              
  9.350000E+02  1.250000E+02 -5.225000E+03  2.025337E-06 -1.007966E-09 -4.250040E-12 -2.025337E-06  1.150123E-08 -5.732049E-12 -2.416812E-14 -1.150123E-08  0.000000E+00  0.000000E+00  0.000000E+00  0.000000E+00  0.000000E+00  0.000000E+00  0.000000E+00  0.000000E+00  1.816052E+00 -9.698126E-04 -4.086974E-06 -1.816052E+00                                                                                                                                                                                                                                                                                                                                                                                                                                                                                              
  1.185000E+03  1.250000E+02 -5.225000E+03  2.027696E-06 -1.416081E-09 -8.099896E-12 -2.027696E-06  1.151735E-08 -8.054734E-12 -4.607071E-14 -1.151734E-08  0.000000E+00  0.000000E+00  0.000000E+00  0.000000E+00  0.000000E+00  0.000000E+00  0.000000E+00  0.000000E+00  1.821175E+00 -1.363890E-03 -7.795702E-06 -1.821175E+00                                                                                                                                                                                                                                                                                                                                                                                                                                                                                              
  1.435000E+03  1.250000E+02 -5.225000E+03  2.031457E-06 -7.709399E-10 -1.347565E-11 -2.031457E-06  1.154312E-08 -4.385708E-12 -7.667400E-14 -1.154312E-08  0.000000E+00  0.000000E+00  0.000000E+00  0.000000E+00  0.000000E+00  0.000000E+00  0.000000E+00  0.000000E+00  1.829500E+00 -7.429796E-04 -1.298709E-05 -1.829500E+00                                                                                                                                                                                                                                                                                                                                                                                                                                                                                              
  1.250000E+02  1.250000E+02 -4.975000E+03  2.057013E-06  7.338954E-10  3.359830E-12 -2.057013E-06  1.122973E-08  4.027025E-12  1.844318E-14 -1.122973E-08  0.000000E+00  0.000000E+00  0.000000E+00  0.000000E+00  0.000000E+00  0.000000E+00  0.000000E+00  0.000000E+00  1.495602E+00  6.134841E-04  2.808578E-06 -1.495602E+00                                                                                                                                                                                                                                                                                                                                                                                                                                                                                              
  3.750000E+02  1.250000E+02 -4.975000E+03  2.052238E-06  1.260984E-09  1.908825E-12 -2.052237E-06  1.119637E-08  6.917293E-12  1.047027E-14 -1.119637E-08  0.000000E+00  0.000000E+00  0.000000E+00  0.000000E+00  0.000000E+00  0.000000E+00  0.000000E+00  0.000000E+00  1.484668E+00  1.052453E-03  1.589703E-06 -1.484668E+00                                                                                                                                                                                                                                                                                                                                                                                                                                                                                              
  6.250000E+02  1.250000E+02 -4.975000E+03  2.048754E-06  3.661136E-10 -8.627227E-14 -2.048754E-06  1.117152E-08  2.007806E-12 -4.729298E-16 -1.117152E-08  0.000000E+00  0.000000E+00  0.000000E+00  0.000000E+00  0.000000E+00  0.000000E+00  0.000000E+00  0.000000E+00  1.476408E+00  3.052778E-04 -7.163025E-08 -1.476408E+00                                                                                                                                                                                                                                                                                                                                                                                                                                                                                              
  7.600000E+02  1.250000E+02 -4.975000E+03  2.048760E-06 -3.958773E-10 -8.565529E-13 -2.048760E-06  1.117208E-08 -2.170239E-12 -4.695736E-15 -1.117208E-08  0.000000E+00  0.000000E+00  0.000000E+00  0.000000E+00  0.000000E+00  0.000000E+00  0.000000E+00  0.000000E+00  1.476894E+00 -3.288005E-04 -7.113773E-07 -1.476894E+00                                                                                                                                                                                                                                                                                                                                                                                                                                                                                              
  7.800000E+02  1.250000E+02 -4.975000E+03  2.048866E-06 -5.436156E-10 -9.719219E-13 -2.048866E-06  1.117287E-08 -2.980261E-12 -5.328325E-15 -1.117287E-08  0.000000E+00  0.000000E+00  0.000000E+00  0.000000E+00  0.000000E+00  0.000000E+00  0.000000E+00  0.000000E+00  1.477176E+00 -4.515863E-04 -8.072843E-07 -1.477176E+00                                                                                                                                                                                                                                                                                                                                                                                                                                                                                              
  8.000000E+02  1.250000E+02 -4.975000E+03  2.049145E-06 -6.859284E-10 -1.088789E-12 -2.049145E-06  1.117483E-08 -3.760946E-12 -5.969297E-15 -1.117483E-08  0.000000E+00  0.000000E+00  0.000000E+00  0.000000E+00  0.000000E+00  0.000000E+00  0.000000E+00  0.000000E+00  1.477796E+00 -5.704540E-04 -9.045642E-07 -1.477796E+00                                                                                                                                                                                                                                                                                                                                                                                                                                                                                              
  9.350000E+02  1.250000E+02 -4.975000E+03  2.051543E-06 -9.602594E-10 -1.870112E-12 -2.051543E-06  1.119150E-08 -5.267024E-12 -1.025679E-14 -1.119149E-08  0.000000E+00  0.000000E+00  0.000000E+00  0.000000E+00  0.000000E+00  0.000000E+00  0.000000E+00  0.000000E+00  1.483015E+00 -8.005339E-04 -1.556614E-06 -1.483015E+00                                                                                                                                                                                                                                                                                                                                                                                                                                                                                              
  1.185000E+03  1.250000E+02 -4.975000E+03  2.053851E-06 -1.493866E-09 -5.254182E-12 -2.053851E-06  1.120907E-08 -8.198759E-12 -2.883205E-14 -1.120907E-08  0.000000E+00  0.000000E+00  0.000000E+00  0.000000E+00  0.000000E+00  0.000000E+00  0.000000E+00  0.000000E+00  1.489622E+00 -1.249935E-03 -4.384749E-06 -1.489621E+00                                                                                                                                                                                                                                                                                                                                                                                                                                                                                              
  1.435000E+03  1.250000E+02 -4.975000E+03  2.059571E-06 -9.108216E-10 -1.191470E-11 -2.059571E-06  1.124886E-08 -5.000196E-12 -6.543880E-14 -1.124886E-08  0.000000E+00  0.000000E+00  0.000000E+00  0.000000E+00  0.000000E+00  0.000000E+00  0.000000E+00  0.000000E+00  1.502671E+00 -7.633780E-04 -9.986435E-06 -1.502671E+00                                                                                                                                                                                                                                                                                                                                                                                                                                                                                              
  1.250000E+02  1.250000E+02 -4.725000E+03  2.085997E-06 -1.737114E-09 -3.275720E-12 -2.085997E-06  1.089676E-08 -9.057829E-12 -1.708747E-14 -1.089675E-08  0.000000E+00  0.000000E+00  0.000000E+00  0.000000E+00  0.000000E+00  0.000000E+00  0.000000E+00  0.000000E+00  1.062564E+00 -1.069626E-03 -2.030897E-06 -1.062564E+00                                                                                                                                                                                                                                                                                                                                                                                                                                                                                              
  3.750000E+02  1.250000E+02 -4.725000E+03  2.082093E-06 -3.062746E-09 -7.562270E-13 -2.082091E-06  1.086950E-08 -1.596507E-11 -3.941501E-15 -1.086948E-08  0.000000E+00  0.000000E+00  0.000000E+00  0.000000E+00  0.000000E+00  0.000000E+00  0.000000E+00  0.000000E+00  1.055944E+00 -1.881759E-03 -4.656413E-07 -1.055943E+00                                                                                                                                                                                                                                                                                                                                                                                                                                                                                              
  6.250000E+02  1.250000E+02 -4.725000E+03  2.079320E-06 -7.778756E-10  4.047908E-12 -2.079319E-06  1.084986E-08 -4.053970E-12  2.108514E-14 -1.084985E-08  0.000000E+00  0.000000E+00  0.000000E+00  0.000000E+00  0.000000E+00  0.000000E+00  0.000000E+00  0.000000E+00  1.051193E+00 -4.765563E-04  2.479903E-06 -1.051193E+00                                                                                                                                                                                                                                                                                                                                                                                                                                                                                              
  7.600000E+02  1.250000E+02 -4.725000E+03  2.079480E-06  1.274736E-09  6.089943E-12 -2.079480E-06  1.085104E-08  6.640233E-12  3.172327E-14 -1.085104E-08  0.000000E+00  0.000000E+00  0.000000E+00  0.000000E+00  0.000000E+00  0.000000E+00  0.000000E+00  0.000000E+00  1.051457E+00  7.811097E-04  3.732254E-06 -1.051457E+00                                                                                                                                                                                                                                                                                                                                                                                                                                                                                              
  7.800000E+02  1.250000E+02 -4.725000E+03  2.079574E-06  1.631234E-09  6.395177E-12 -2.079573E-06  1.085171E-08  8.497539E-12  3.331397E-14 -1.085170E-08  0.000000E+00  0.000000E+00  0.000000E+00  0.000000E+00  0.000000E+00  0.000000E+00  0.000000E+00  0.000000E+00  1.051616E+00  9.998071E-04  3.920003E-06 -1.051616E+00                                                                                                                                                                                                                                                                                                                                                                                                                                                                                              
  8.000000E+02  1.250000E+02 -4.725000E+03  2.079772E-06  1.972403E-09  6.704580E-12 -2.079771E-06  1.085313E-08  1.027611E-11  3.492725E-14 -1.085312E-08  0.000000E+00  0.000000E+00  0.000000E+00  0.000000E+00  0.000000E+00  0.000000E+00  0.000000E+00  0.000000E+00  1.051964E+00  1.209248E-03  4.111157E-06 -1.051963E+00                                                                                                                                                                                                                                                                                                                                                                                                                                                                                              
  9.350000E+02  1.250000E+02 -4.725000E+03  2.081482E-06  2.675510E-09  8.795293E-12 -2.081480E-06  1.086528E-08  1.394435E-11  4.583574E-14 -1.086527E-08  0.000000E+00  0.000000E+00  0.000000E+00  0.000000E+00  0.000000E+00  0.000000E+00  0.000000E+00  0.000000E+00  1.054943E+00  1.643645E-03  5.409889E-06 -1.054941E+00                                                                                                                                                                                                                                                                                                                                                                                                                                                                                              
  1.185000E+03  1.250000E+02 -4.725000E+03  2.083844E-06  3.695979E-09  1.695028E-11 -2.083841E-06  1.088188E-08  1.927474E-11  8.838054E-14 -1.088186E-08  0.000000E+00  0.000000E+00  0.000000E+00  0.000000E+00  0.000000E+00  0.000000E+00  0.000000E+00  0.000000E+00  1.058855E+00  2.278867E-03  1.047065E-05 -1.058852E+00                                                                                                                                                                                                                                                                                                                                                                                                                                                                                              