Title="TOUGHREACT V3.30-OMP flowvector.tec: Liq & Gas Fluxes (kg/s/m^2), Pore Velocities (m/s), & Heat Fluxes (J/s/m2)"                                                                                                                                                                                                                                                                                                                                                                                                                                                                                                                                                                                                                                                                                                         
Variables= "X(m)"     "Y(m)"      "Z(m)"     "FluxLiq"   "FluxLiq_X"   "FluxLiq_Y"   "FluxLiq_Z"   "PorVelLiq"  "PorVelLiqX"  "PorVelLiqY"  "PorVelLiqZ"     "FluxGas"   "FluxGas_X"   "FluxGas_Y"   "FluxGas_Z"   "PorVelGas"  "PorVelGasX"  "PorVelGasY"  "PorVelGasZ"    "HeatFlux"  "HeatFlux_X"  "HeatFlux_Y"  "HeatFlux_Z"                                                                                                                                                                                                                                                                                                                                                                                                                                                                                                
Zone T= "1.00000000E+11 sec" I=     9 J=    10 K=    23 F=Point
  1.250000E+02  1.250000E+02 -5.425000E+03  9.737470E-07  0.000000E+00  0.000000E+00 -9.737470E-07  5.590030E-09  0.000000E+00  0.000000E+00 -5.590030E-09  0.000000E+00  0.000000E+00  0.000000E+00  0.000000E+00  0.000000E+00  0.000000E+00  0.000000E+00  0.000000E+00  8.824776E-01  0.000000E+00  0.000000E+00 -8.824776E-01                                                                                                                                                                                                                                                                                                                                                                                                                                                                                              
  3.750000E+02  1.250000E+02 -5.425000E+03  9.722883E-07  0.000000E+00  0.000000E+00 -9.722883E-07  5.580441E-09  0.000000E+00  0.000000E+00 -5.580441E-09  0.000000E+00  0.000000E+00  0.000000E+00  0.000000E+00  0.000000E+00  0.000000E+00  0.000000E+00  0.000000E+00  8.795102E-01  0.000000E+00  0.000000E+00 -8.795102E-01                                                                                                                                                                                                                                                                                                                                                                                                                                                                                              
  6.250000E+02  1.250000E+02 -5.425000E+03  9.710973E-07  0.000000E+00  0.000000E+00 -9.710973E-07  5.572579E-09  0.000000E+00  0.000000E+00 -5.572579E-09  0.000000E+00  0.000000E+00  0.000000E+00  0.000000E+00  0.000000E+00  0.000000E+00  0.000000E+00  0.000000E+00  8.770418E-01  0.000000E+00  0.000000E+00 -8.770418E-01                                                                                                                                                                                                                                                                                                                                                                                                                                                                                              
  7.600000E+02  1.250000E+02 -5.425000E+03  9.712457E-07  0.000000E+00  0.000000E+00 -9.712457E-07  5.573520E-09  0.000000E+00  0.000000E+00 -5.573520E-09  0.000000E+00  0.000000E+00  0.000000E+00  0.000000E+00  0.000000E+00  0.000000E+00  0.000000E+00  0.000000E+00  8.772978E-01  0.000000E+00  0.000000E+00 -8.772978E-01                                                                                                                                                                                                                                                                                                                                                                                                                                                                                              
  7.800000E+02  1.250000E+02 -5.425000E+03  9.712907E-07  0.000000E+00  0.000000E+00 -9.712907E-07  5.573817E-09  0.000000E+00  0.000000E+00 -5.573817E-09  0.000000E+00  0.000000E+00  0.000000E+00  0.000000E+00  0.000000E+00  0.000000E+00  0.000000E+00  0.000000E+00  8.773909E-01  0.000000E+00  0.000000E+00 -8.773909E-01                                                                                                                                                                                                                                                                                                                                                                                                                                                                                              
  8.000000E+02  1.250000E+02 -5.425000E+03  9.713710E-07  0.000000E+00  0.000000E+00 -9.713710E-07  5.574359E-09  0.000000E+00  0.000000E+00 -5.574359E-09  0.000000E+00  0.000000E+00  0.000000E+00  0.000000E+00  0.000000E+00  0.000000E+00  0.000000E+00  0.000000E+00  8.775728E-01  0.000000E+00  0.000000E+00 -8.775728E-01                                                                                                                                                                                                                                                                                                                                                                                                                                                                                              
  9.350000E+02  1.250000E+02 -5.425000E+03  9.720183E-07  0.000000E+00  0.000000E+00 -9.720183E-07  5.578727E-09  0.000000E+00  0.000000E+00 -5.578727E-09  0.000000E+00  0.000000E+00  0.000000E+00  0.000000E+00  0.000000E+00  0.000000E+00  0.000000E+00  0.000000E+00  8.790427E-01  0.000000E+00  0.000000E+00 -8.790427E-01                                                                                                                                                                                                                                                                                                                                                                                                                                                                                              
  1.185000E+03  1.250000E+02 -5.425000E+03  9.731708E-07  0.000000E+00  0.000000E+00 -9.731708E-07  5.586184E-09  0.000000E+00  0.000000E+00 -5.586184E-09  0.000000E+00  0.000000E+00  0.000000E+00  0.000000E+00  0.000000E+00  0.000000E+00  0.000000E+00  0.000000E+00  8.812281E-01  0.000000E+00  0.000000E+00 -8.812281E-01                                                                                                                                                                                                                                                                                                                                                                                                                                                                                              
  1.435000E+03  1.250000E+02 -5.425000E+03  9.748763E-07  0.000000E+00  0.000000E+00 -9.748763E-07  5.597366E-09  0.000000E+00  0.000000E+00 -5.597366E-09  0.000000E+00  0.000000E+00  0.000000E+00  0.000000E+00  0.000000E+00  0.000000E+00  0.000000E+00  0.000000E+00  8.846581E-01  0.000000E+00  0.000000E+00 -8.846581E-01                                                                                                                                                                                                                                                                                                                                                                                                                                                                                              
  1.250000E+02  1.250000E+02 -5.225000E+03  1.959544E-06  4.573918E-10  2.147272E-12 -1.959544E-06  1.099550E-08  2.562386E-12  1.203208E-14 -1.099550E-08  0.000000E+00  0.000000E+00  0.000000E+00  0.000000E+00  0.000000E+00  0.000000E+00  0.000000E+00  0.000000E+00  1.624074E+00  4.145204E-04  1.946008E-06 -1.624074E+00                                                                                                                                                                                                                                                                                                                                                                                                                                                                                              
  3.750000E+02  1.250000E+02 -5.225000E+03  1.956117E-06  8.058816E-10  1.354653E-12 -1.956117E-06  1.097215E-08  4.513899E-12  7.587384E-15 -1.097215E-08  0.000000E+00  0.000000E+00  0.000000E+00  0.000000E+00  0.000000E+00  0.000000E+00  0.000000E+00  0.000000E+00  1.616673E+00  7.297565E-04  1.225389E-06 -1.616673E+00                                                                                                                                                                                                                                                                                                                                                                                                                                                                                              
  6.250000E+02  1.250000E+02 -5.225000E+03  1.953409E-06  2.252392E-10  5.715816E-14 -1.953409E-06  1.095356E-08  1.261433E-12  3.200235E-16 -1.095356E-08  0.000000E+00  0.000000E+00  0.000000E+00  0.000000E+00  0.000000E+00  0.000000E+00  0.000000E+00  0.000000E+00  1.610733E+00  2.039074E-04  5.162211E-08 -1.610733E+00                                                                                                                                                                                                                                                                                                                                                                                                                                                                                              
  7.600000E+02  1.250000E+02 -5.225000E+03  1.953657E-06 -2.878178E-10 -5.540722E-13 -1.953657E-06  1.095526E-08 -1.611513E-12 -3.102302E-15 -1.095526E-08  0.000000E+00  0.000000E+00  0.000000E+00  0.000000E+00  0.000000E+00  0.000000E+00  0.000000E+00  0.000000E+00  1.611271E+00 -2.599863E-04 -5.004789E-07 -1.611271E+00                                                                                                                                                                                                                                                                                                                                                                                                                                                                                              
  7.800000E+02  1.250000E+02 -5.225000E+03  1.953753E-06 -3.698003E-10 -6.452529E-13 -1.953753E-06  1.095593E-08 -2.070584E-12 -3.612882E-15 -1.095593E-08  0.000000E+00  0.000000E+00  0.000000E+00  0.000000E+00  0.000000E+00  0.000000E+00  0.000000E+00  0.000000E+00  1.611488E+00 -3.340729E-04 -5.828750E-07 -1.611488E+00                                                                                                                                                                                                                                                                                                                                                                                                                                                                                              
  8.000000E+02  1.250000E+02 -5.225000E+03  1.953944E-06 -4.485134E-10 -7.406094E-13 -1.953944E-06  1.095726E-08 -2.511514E-12 -4.146919E-15 -1.095726E-08  0.000000E+00  0.000000E+00  0.000000E+00  0.000000E+00  0.000000E+00  0.000000E+00  0.000000E+00  0.000000E+00  1.611926E+00 -4.054253E-04 -6.690968E-07 -1.611926E+00                                                                                                                                                                                                                                                                                                                                                                                                                                                                                              
  9.350000E+02  1.250000E+02 -5.225000E+03  1.955506E-06 -6.748453E-10 -1.396079E-12 -1.955505E-06  1.096813E-08 -3.779762E-12 -7.818951E-15 -1.096813E-08  0.000000E+00  0.000000E+00  0.000000E+00  0.000000E+00  0.000000E+00  0.000000E+00  0.000000E+00  0.000000E+00  1.615501E+00 -6.108019E-04 -1.262546E-06 -1.615501E+00                                                                                                                                                                                                                                                                                                                                                                                                                                                                                              
  1.185000E+03  1.250000E+02 -5.225000E+03  1.957832E-06 -9.880077E-10 -3.828487E-12 -1.957832E-06  1.098406E-08 -5.535540E-12 -2.144853E-14 -1.098406E-08  0.000000E+00  0.000000E+00  0.000000E+00  0.000000E+00  0.000000E+00  0.000000E+00  0.000000E+00  0.000000E+00  1.620576E+00 -8.957396E-04 -3.466811E-06 -1.620576E+00                                                                                                                                                                                                                                                                                                                                                                                                                                                                                              
  1.435000E+03  1.250000E+02 -5.225000E+03  1.961847E-06 -5.564427E-10 -7.639063E-12 -1.961847E-06  1.101138E-08 -3.118140E-12 -4.281819E-14 -1.101137E-08  0.000000E+00  0.000000E+00  0.000000E+00  0.000000E+00  0.000000E+00  0.000000E+00  0.000000E+00  0.000000E+00  1.629224E+00 -5.049477E-04 -6.932281E-06 -1.629224E+00                                                                                                                                                                                                                                                                                                                                                                                                                                                                                              
  1.250000E+02  1.250000E+02 -4.975000E+03  1.985487E-06  2.804418E-10  2.898086E-12 -1.985487E-06  1.065773E-08  1.509121E-12  1.560064E-14 -1.065773E-08  0.000000E+00  0.000000E+00  0.000000E+00  0.000000E+00  0.000000E+00  0.000000E+00  0.000000E+00  0.000000E+00  1.290667E+00  2.109710E-04  2.180175E-06 -1.290667E+00                                                                                                                                                                                                                                                                                                                                                                                                                                                                                              
  3.750000E+02  1.250000E+02 -4.975000E+03  1.981099E-06  4.725506E-10  2.367844E-12 -1.981099E-06  1.062816E-08  2.542285E-12  1.273777E-14 -1.062816E-08  0.000000E+00  0.000000E+00  0.000000E+00  0.000000E+00  0.000000E+00  0.000000E+00  0.000000E+00  0.000000E+00  1.282109E+00  3.549141E-04  1.774176E-06 -1.282109E+00                                                                                                                                                                                                                                                                                                                                                                                                                                                                                              
  6.250000E+02  1.250000E+02 -4.975000E+03  1.977870E-06  1.748848E-10  2.020251E-12 -1.977870E-06  1.060609E-08  9.405544E-13  1.086216E-14 -1.060609E-08  0.000000E+00  0.000000E+00  0.000000E+00  0.000000E+00  0.000000E+00  0.000000E+00  0.000000E+00  0.000000E+00  1.275661E+00  1.310748E-04  1.508929E-06 -1.275661E+00                                                                                                                                                                                                                                                                                                                                                                                                                                                                                              
  7.600000E+02  1.250000E+02 -4.975000E+03  1.977913E-06 -6.415947E-11  2.058229E-12 -1.977913E-06  1.060674E-08 -3.449787E-13  1.106688E-14 -1.060674E-08  0.000000E+00  0.000000E+00  0.000000E+00  0.000000E+00  0.000000E+00  0.000000E+00  0.000000E+00  0.000000E+00  1.276044E+00 -4.793851E-05  1.537731E-06 -1.276044E+00                                                                                                                                                                                                                                                                                                                                                                                                                                                                                              
  7.800000E+02  1.250000E+02 -4.975000E+03  1.978014E-06 -1.239595E-10  2.066097E-12 -1.978014E-06  1.060746E-08 -6.665349E-13  1.110940E-14 -1.060746E-08  0.000000E+00  0.000000E+00  0.000000E+00  0.000000E+00  0.000000E+00  0.000000E+00  0.000000E+00  0.000000E+00  1.276264E+00 -9.263622E-05  1.543789E-06 -1.276264E+00                                                                                                                                                                                                                                                                                                                                                                                                                                                                                              
  8.000000E+02  1.250000E+02 -4.975000E+03  1.978270E-06 -1.818293E-10  2.073752E-12 -1.978270E-06  1.060918E-08 -9.778131E-13  1.115100E-14 -1.060918E-08  0.000000E+00  0.000000E+00  0.000000E+00  0.000000E+00  0.000000E+00  0.000000E+00  0.000000E+00  0.000000E+00  1.276748E+00 -1.360466E-04  1.549876E-06 -1.276748E+00                                                                                                                                                                                                                                                                                                                                                                                                                                                                                              
  9.350000E+02  1.250000E+02 -4.975000E+03  1.980464E-06 -2.377776E-10  2.149466E-12 -1.980464E-06  1.062385E-08 -1.279055E-12  1.156186E-14 -1.062385E-08  0.000000E+00  0.000000E+00  0.000000E+00  0.000000E+00  0.000000E+00  0.000000E+00  0.000000E+00  0.000000E+00  1.280816E+00 -1.783248E-04  1.609570E-06 -1.280816E+00                                                                                                                                                                                                                                                                                                                                                                                                                                                                                              
  1.185000E+03  1.250000E+02 -4.975000E+03  1.982700E-06 -4.674307E-10  1.553610E-12 -1.982700E-06  1.063991E-08 -2.515945E-12  8.360593E-15 -1.063991E-08  0.000000E+00  0.000000E+00  0.000000E+00  0.000000E+00  0.000000E+00  0.000000E+00  0.000000E+00  0.000000E+00  1.285990E+00 -3.521579E-04  1.166551E-06 -1.285989E+00                                                                                                                                                                                                                                                                                                                                                                                                                                                                                              
  1.435000E+03  1.250000E+02 -4.975000E+03  1.987946E-06 -3.344584E-10 -8.818450E-13 -1.987945E-06  1.067517E-08 -1.800537E-12 -4.749317E-15 -1.067517E-08  0.000000E+00  0.000000E+00  0.000000E+00  0.000000E+00  0.000000E+00  0.000000E+00  0.000000E+00  0.000000E+00  1.296212E+00 -2.523137E-04 -6.652943E-07 -1.296212E+00                                                                                                                                                                                                                                                                                                                                                                                                                                                                                              
  1.250000E+02  1.250000E+02 -4.725000E+03  2.006484E-06 -1.256563E-09 -2.002408E-12 -2.006484E-06  1.035942E-08 -6.465574E-12 -1.030580E-14 -1.035942E-08  0.000000E+00  0.000000E+00  0.000000E+00  0.000000E+00  0.000000E+00  0.000000E+00  0.000000E+00  0.000000E+00  9.517917E-01 -6.866343E-04 -1.099789E-06 -9.517914E-01                                                                                                                                                                                                                                                                                                                                                                                                                                                                                              
  3.750000E+02  1.250000E+02 -4.725000E+03  2.003021E-06 -2.205461E-09 -9.451660E-14 -2.003019E-06  1.033701E-08 -1.134592E-11 -4.862026E-16 -1.033700E-08  0.000000E+00  0.000000E+00  0.000000E+00  0.000000E+00  0.000000E+00  0.000000E+00  0.000000E+00  0.000000E+00  9.472479E-01 -1.203203E-03 -5.164711E-08 -9.472471E-01                                                                                                                                                                                                                                                                                                                                                                                                                                                                                              
  6.250000E+02  1.250000E+02 -4.725000E+03  2.000498E-06 -5.511478E-10  3.411117E-12 -2.000498E-06  1.032058E-08 -2.835014E-12  1.754063E-14 -1.032058E-08  0.000000E+00  0.000000E+00  0.000000E+00  0.000000E+00  0.000000E+00  0.000000E+00  0.000000E+00  0.000000E+00  9.439461E-01 -3.000383E-04  1.856971E-06 -9.439460E-01                                                                                                                                                                                                                                                                                                                                                                                                                                                                                              
  7.600000E+02  1.250000E+02 -4.725000E+03  2.000677E-06  9.255005E-10  4.911533E-12 -2.000677E-06  1.032173E-08  4.759214E-12  2.525670E-14 -1.032173E-08  0.000000E+00  0.000000E+00  0.000000E+00  0.000000E+00  0.000000E+00  0.000000E+00  0.000000E+00  0.000000E+00  9.441410E-01  5.039012E-04  2.674429E-06 -9.441409E-01                                                                                                                                                                                                                                                                                                                                                                                                                                                                                              
  7.800000E+02  1.250000E+02 -4.725000E+03  2.000764E-06  1.184142E-09  5.135029E-12 -2.000764E-06  1.032230E-08  6.089344E-12  2.640632E-14 -1.032230E-08  0.000000E+00  0.000000E+00  0.000000E+00  0.000000E+00  0.000000E+00  0.000000E+00  0.000000E+00  0.000000E+00  9.442530E-01  6.448350E-04  2.796487E-06 -9.442528E-01                                                                                                                                                                                                                                                                                                                                                                                                                                                                                              
  8.000000E+02  1.250000E+02 -4.725000E+03  2.000943E-06  1.431642E-09  5.361931E-12 -2.000942E-06  1.032347E-08  7.362682E-12  2.757388E-14 -1.032347E-08  0.000000E+00  0.000000E+00  0.000000E+00  0.000000E+00  0.000000E+00  0.000000E+00  0.000000E+00  0.000000E+00  9.444937E-01  7.797739E-04  2.920854E-06 -9.444934E-01                                                                                                                                                                                                                                                                                                                                                                                                                                                                                              
  9.350000E+02  1.250000E+02 -4.725000E+03  2.002480E-06  1.926887E-09  6.879788E-12 -2.002479E-06  1.033354E-08  9.911829E-12  3.538758E-14 -1.033353E-08  0.000000E+00  0.000000E+00  0.000000E+00  0.000000E+00  0.000000E+00  0.000000E+00  0.000000E+00  0.000000E+00  9.465601E-01  1.051113E-03  3.756425E-06 -9.465595E-01                                                                                                                                                                                                                                                                                                                                                                                                                                                                                              
  1.185000E+03  1.250000E+02 -4.725000E+03  2.004731E-06  2.680538E-09  1.280424E-11 -2.004730E-06  1.034797E-08  1.379376E-11  6.588166E-14 -1.034796E-08  0.000000E+00  0.000000E+00  0.000000E+00  0.000000E+00  0.000000E+00  0.000000E+00  0.000000E+00  0.000000E+00  9.493206E-01  1.466207E-03  7.013085E-06 -9.493194E-01                                                                                                                                                                                                                                                                                                                                                                                                                                                                                              