Title="TOUGHREACT V3.30-OMP flowvector.tec: Liq & Gas Fluxes (kg/s/m^2), Pore Velocities (m/s), & Heat Fluxes (J/s/m2)"                                                                                                                                                                                                                                                                                                                                                                                                                                                                                                                                                                                                                                                                                                         
Variables= "X(m)"     "Y(m)"      "Z(m)"     "FluxLiq"   "FluxLiq_X"   "FluxLiq_Y"   "FluxLiq_Z"   "PorVelLiq"  "PorVelLiqX"  "PorVelLiqY"  "PorVelLiqZ"     "FluxGas"   "FluxGas_X"   "FluxGas_Y"   "FluxGas_Z"   "PorVelGas"  "PorVelGasX"  "PorVelGasY"  "PorVelGasZ"    "HeatFlux"  "HeatFlux_X"  "HeatFlux_Y"  "HeatFlux_Z"                                                                                                                                                                                                                                                                                                                                                                                                                                                                                                
Zone T= "1.00000000E+10 sec" I=     9 J=    10 K=    23 F=Point
  1.250000E+02  1.250000E+02 -5.425000E+03  1.062611E-06  0.000000E+00  0.000000E+00 -1.062611E-06  6.208314E-09  0.000000E+00  0.000000E+00 -6.208314E-09  0.000000E+00  0.000000E+00  0.000000E+00  0.000000E+00  0.000000E+00  0.000000E+00  0.000000E+00  0.000000E+00  1.100178E+00  0.000000E+00  0.000000E+00 -1.100178E+00                                                                                                                                                                                                                                                                                                                                                                                                                                                                                              
  3.750000E+02  1.250000E+02 -5.425000E+03  1.056161E-06  0.000000E+00  0.000000E+00 -1.056161E-06  6.170790E-09  0.000000E+00  0.000000E+00 -6.170790E-09  0.000000E+00  0.000000E+00  0.000000E+00  0.000000E+00  0.000000E+00  0.000000E+00  0.000000E+00  0.000000E+00  1.093585E+00  0.000000E+00  0.000000E+00 -1.093585E+00                                                                                                                                                                                                                                                                                                                                                                                                                                                                                              
  6.250000E+02  1.250000E+02 -5.425000E+03  1.051946E-06  0.000000E+00  0.000000E+00 -1.051946E-06  6.146267E-09  0.000000E+00  0.000000E+00 -6.146267E-09  0.000000E+00  0.000000E+00  0.000000E+00  0.000000E+00  0.000000E+00  0.000000E+00  0.000000E+00  0.000000E+00  1.089278E+00  0.000000E+00  0.000000E+00 -1.089278E+00                                                                                                                                                                                                                                                                                                                                                                                                                                                                                              
  7.600000E+02  1.250000E+02 -5.425000E+03  1.052868E-06  0.000000E+00  0.000000E+00 -1.052868E-06  6.151626E-09  0.000000E+00  0.000000E+00 -6.151626E-09  0.000000E+00  0.000000E+00  0.000000E+00  0.000000E+00  0.000000E+00  0.000000E+00  0.000000E+00  0.000000E+00  1.090216E+00  0.000000E+00  0.000000E+00 -1.090216E+00                                                                                                                                                                                                                                                                                                                                                                                                                                                                                              
  7.800000E+02  1.250000E+02 -5.425000E+03  1.053044E-06  0.000000E+00  0.000000E+00 -1.053044E-06  6.152649E-09  0.000000E+00  0.000000E+00 -6.152649E-09  0.000000E+00  0.000000E+00  0.000000E+00  0.000000E+00  0.000000E+00  0.000000E+00  0.000000E+00  0.000000E+00  1.090396E+00  0.000000E+00  0.000000E+00 -1.090396E+00                                                                                                                                                                                                                                                                                                                                                                                                                                                                                              
  8.000000E+02  1.250000E+02 -5.425000E+03  1.053259E-06  0.000000E+00  0.000000E+00 -1.053259E-06  6.153900E-09  0.000000E+00  0.000000E+00 -6.153900E-09  0.000000E+00  0.000000E+00  0.000000E+00  0.000000E+00  0.000000E+00  0.000000E+00  0.000000E+00  0.000000E+00  1.090617E+00  0.000000E+00  0.000000E+00 -1.090617E+00                                                                                                                                                                                                                                                                                                                                                                                                                                                                                              
  9.350000E+02  1.250000E+02 -5.425000E+03  1.054972E-06  0.000000E+00  0.000000E+00 -1.054972E-06  6.163882E-09  0.000000E+00  0.000000E+00 -6.163882E-09  0.000000E+00  0.000000E+00  0.000000E+00  0.000000E+00  0.000000E+00  0.000000E+00  0.000000E+00  0.000000E+00  1.092381E+00  0.000000E+00  0.000000E+00 -1.092381E+00                                                                                                                                                                                                                                                                                                                                                                                                                                                                                              
  1.185000E+03  1.250000E+02 -5.425000E+03  1.063661E-06  0.000000E+00  0.000000E+00 -1.063661E-06  6.214457E-09  0.000000E+00  0.000000E+00 -6.214457E-09  0.000000E+00  0.000000E+00  0.000000E+00  0.000000E+00  0.000000E+00  0.000000E+00  0.000000E+00  0.000000E+00  1.101288E+00  0.000000E+00  0.000000E+00 -1.101288E+00                                                                                                                                                                                                                                                                                                                                                                                                                                                                                              
  1.435000E+03  1.250000E+02 -5.425000E+03  1.073450E-06  0.000000E+00  0.000000E+00 -1.073450E-06  6.271435E-09  0.000000E+00  0.000000E+00 -6.271435E-09  0.000000E+00  0.000000E+00  0.000000E+00  0.000000E+00  0.000000E+00  0.000000E+00  0.000000E+00  0.000000E+00  1.111327E+00  0.000000E+00  0.000000E+00 -1.111327E+00                                                                                                                                                                                                                                                                                                                                                                                                                                                                                              
  1.250000E+02  1.250000E+02 -5.225000E+03  2.135099E-06  5.214599E-09 -5.164137E-11 -2.135092E-06  1.237161E-08  3.027716E-11 -2.998374E-13 -1.237158E-08  0.000000E+00  0.000000E+00  0.000000E+00  0.000000E+00  0.000000E+00  0.000000E+00  0.000000E+00  0.000000E+00  2.157437E+00  5.398953E-03 -5.346706E-05 -2.157430E+00                                                                                                                                                                                                                                                                                                                                                                                                                                                                                              
  3.750000E+02  1.250000E+02 -5.225000E+03  2.115190E-06  8.623034E-09 -6.989838E-11 -2.115172E-06  1.225687E-08  5.006799E-11 -4.058562E-13 -1.225676E-08  0.000000E+00  0.000000E+00  0.000000E+00  0.000000E+00  0.000000E+00  0.000000E+00  0.000000E+00  0.000000E+00  2.137242E+00  8.928161E-03 -7.237515E-05 -2.137223E+00                                                                                                                                                                                                                                                                                                                                                                                                                                                                                              
  6.250000E+02  1.250000E+02 -5.225000E+03  2.103767E-06  2.026499E-09 -1.013577E-10 -2.103766E-06  1.219078E-08  1.176662E-11 -5.885364E-13 -1.219077E-08  0.000000E+00  0.000000E+00  0.000000E+00  0.000000E+00  0.000000E+00  0.000000E+00  0.000000E+00  0.000000E+00  2.125368E+00  2.098252E-03 -1.049547E-04 -2.125367E+00                                                                                                                                                                                                                                                                                                                                                                                                                                                                                              
  7.600000E+02  1.250000E+02 -5.225000E+03  2.105445E-06 -3.158013E-09 -1.257214E-10 -2.105443E-06  1.220047E-08 -1.833698E-11 -7.299998E-13 -1.220045E-08  0.000000E+00  0.000000E+00  0.000000E+00  0.000000E+00  0.000000E+00  0.000000E+00  0.000000E+00  0.000000E+00  2.127079E+00 -3.270034E-03 -1.301811E-04 -2.127077E+00                                                                                                                                                                                                                                                                                                                                                                                                                                                                                              
  7.800000E+02  1.250000E+02 -5.225000E+03  2.105799E-06 -3.945784E-09 -1.294196E-10 -2.105795E-06  1.220252E-08 -2.291113E-11 -7.514722E-13 -1.220250E-08  0.000000E+00  0.000000E+00  0.000000E+00  0.000000E+00  0.000000E+00  0.000000E+00  0.000000E+00  0.000000E+00  2.127454E+00 -4.085741E-03 -1.340101E-04 -2.127450E+00                                                                                                                                                                                                                                                                                                                                                                                                                                                                                              
  8.000000E+02  1.250000E+02 -5.225000E+03  2.106259E-06 -4.730104E-09 -1.332067E-10 -2.106254E-06  1.220521E-08 -2.746517E-11 -7.734614E-13 -1.220518E-08  0.000000E+00  0.000000E+00  0.000000E+00  0.000000E+00  0.000000E+00  0.000000E+00  0.000000E+00  0.000000E+00  2.127959E+00 -4.897851E-03 -1.379314E-04 -2.127953E+00                                                                                                                                                                                                                                                                                                                                                                                                                                                                                              
  9.350000E+02  1.250000E+02 -5.225000E+03  2.110068E-06 -9.578964E-09 -1.593747E-10 -2.110046E-06  1.222747E-08 -5.561842E-11 -9.253984E-13 -1.222734E-08  0.000000E+00  0.000000E+00  0.000000E+00  0.000000E+00  0.000000E+00  0.000000E+00  0.000000E+00  0.000000E+00  2.132172E+00 -9.918036E-03 -1.650259E-04 -2.132149E+00                                                                                                                                                                                                                                                                                                                                                                                                                                                                                              
  1.185000E+03  1.250000E+02 -5.225000E+03  2.130954E-06 -1.492547E-08 -2.209250E-10 -2.130902E-06  1.234794E-08 -8.665891E-11 -1.282728E-12 -1.234764E-08  0.000000E+00  0.000000E+00  0.000000E+00  0.000000E+00  0.000000E+00  0.000000E+00  0.000000E+00  0.000000E+00  2.153363E+00 -1.545275E-02 -2.287401E-04 -2.153307E+00                                                                                                                                                                                                                                                                                                                                                                                                                                                                                              
  1.435000E+03  1.250000E+02 -5.225000E+03  2.159232E-06 -7.906908E-09 -2.726079E-10 -2.159217E-06  1.251085E-08 -4.590730E-11 -1.582727E-12 -1.251076E-08  0.000000E+00  0.000000E+00  0.000000E+00  0.000000E+00  0.000000E+00  0.000000E+00  0.000000E+00  0.000000E+00  2.181899E+00 -8.185902E-03 -2.822266E-04 -2.181884E+00                                                                                                                                                                                                                                                                                                                                                                                                                                                                                              
  1.250000E+02  1.250000E+02 -4.975000E+03  2.171097E-06  1.844986E-08 -5.083292E-11 -2.171019E-06  1.234631E-08  1.053190E-10 -2.901855E-13 -1.234586E-08  0.000000E+00  0.000000E+00  0.000000E+00  0.000000E+00  0.000000E+00  0.000000E+00  0.000000E+00  0.000000E+00  2.051457E+00  1.818788E-02 -5.011106E-05 -2.051377E+00                                                                                                                                                                                                                                                                                                                                                                                                                                                                                              
  3.750000E+02  1.250000E+02 -4.975000E+03  2.118227E-06  2.878440E-08 -9.964623E-11 -2.118032E-06  1.204167E-08  1.643095E-10 -5.688232E-13 -1.204055E-08  0.000000E+00  0.000000E+00  0.000000E+00  0.000000E+00  0.000000E+00  0.000000E+00  0.000000E+00  0.000000E+00  1.993492E+00  2.837239E-02 -9.819965E-05 -1.993290E+00                                                                                                                                                                                                                                                                                                                                                                                                                                                                                              
  6.250000E+02  1.250000E+02 -4.975000E+03  2.099215E-06  7.622017E-09 -1.678464E-10 -2.099201E-06  1.192854E-08  4.350764E-11 -9.580508E-13 -1.192846E-08  0.000000E+00  0.000000E+00  0.000000E+00  0.000000E+00  0.000000E+00  0.000000E+00  0.000000E+00  0.000000E+00  1.968166E+00  7.512495E-03 -1.653362E-04 -1.968152E+00                                                                                                                                                                                                                                                                                                                                                                                                                                                                                              
  7.600000E+02  1.250000E+02 -4.975000E+03  2.099690E-06 -6.542251E-09 -2.182567E-10 -2.099680E-06  1.193174E-08 -3.734264E-11 -1.245791E-12 -1.193168E-08  0.000000E+00  0.000000E+00  0.000000E+00  0.000000E+00  0.000000E+00  0.000000E+00  0.000000E+00  0.000000E+00  1.969306E+00 -6.444651E-03 -2.149984E-04 -1.969295E+00                                                                                                                                                                                                                                                                                                                                                                                                                                                                                              
  7.800000E+02  1.250000E+02 -4.975000E+03  2.099969E-06 -8.780854E-09 -2.259547E-10 -2.099951E-06  1.193354E-08 -5.012070E-11 -1.289737E-12 -1.193343E-08  0.000000E+00  0.000000E+00  0.000000E+00  0.000000E+00  0.000000E+00  0.000000E+00  0.000000E+00  0.000000E+00  1.969855E+00 -8.650123E-03 -2.225857E-04 -1.969836E+00                                                                                                                                                                                                                                                                                                                                                                                                                                                                                              
  8.000000E+02  1.250000E+02 -4.975000E+03  2.100506E-06 -1.101646E-08 -2.338910E-10 -2.100478E-06  1.193702E-08 -6.288327E-11 -1.335050E-12 -1.193685E-08  0.000000E+00  0.000000E+00  0.000000E+00  0.000000E+00  0.000000E+00  0.000000E+00  0.000000E+00  0.000000E+00  1.970927E+00 -1.085485E-02 -2.304131E-04 -1.970897E+00                                                                                                                                                                                                                                                                                                                                                                                                                                                                                              
  9.350000E+02  1.250000E+02 -4.975000E+03  2.105456E-06 -2.498330E-08 -2.890888E-10 -2.105308E-06  1.196886E-08 -1.426142E-10 -1.650271E-12 -1.196801E-08  0.000000E+00  0.000000E+00  0.000000E+00  0.000000E+00  0.000000E+00  0.000000E+00  0.000000E+00  0.000000E+00  1.980505E+00 -2.462550E-02 -2.848952E-04 -1.980352E+00                                                                                                                                                                                                                                                                                                                                                                                                                                                                                              
  1.185000E+03  1.250000E+02 -4.975000E+03  2.135085E-06 -4.509493E-08 -4.381279E-10 -2.134609E-06  1.214053E-08 -2.574200E-10 -2.501091E-12 -1.213780E-08  0.000000E+00  0.000000E+00  0.000000E+00  0.000000E+00  0.000000E+00  0.000000E+00  0.000000E+00  0.000000E+00  2.014151E+00 -4.445842E-02 -4.318794E-04 -2.013660E+00                                                                                                                                                                                                                                                                                                                                                                                                                                                                                              
  1.435000E+03  1.250000E+02 -4.975000E+03  2.204497E-06 -2.617697E-08 -5.864556E-10 -2.204342E-06  1.253895E-08 -1.494282E-10 -3.347803E-12 -1.253806E-08  0.000000E+00  0.000000E+00  0.000000E+00  0.000000E+00  0.000000E+00  0.000000E+00  0.000000E+00  0.000000E+00  2.088375E+00 -2.581027E-02 -5.782417E-04 -2.088215E+00                                                                                                                                                                                                                                                                                                                                                                                                                                                                                              
  1.250000E+02  1.250000E+02 -4.725000E+03  2.290517E-06  5.248238E-08  8.095485E-11 -2.289915E-06  1.250898E-08  2.919329E-10  4.507976E-13 -1.250557E-08  0.000000E+00  0.000000E+00  0.000000E+00  0.000000E+00  0.000000E+00  0.000000E+00  0.000000E+00  0.000000E+00  1.561249E+00  4.749406E-02  7.326030E-05 -1.560526E+00                                                                                                                                                                                                                                                                                                                                                                                                                                                                                              
  3.750000E+02  1.250000E+02 -4.725000E+03  2.125442E-06  6.989951E-08 -3.609439E-11 -2.124292E-06  1.157826E-08  3.886420E-10 -2.005953E-13 -1.157174E-08  0.000000E+00  0.000000E+00  0.000000E+00  0.000000E+00  0.000000E+00  0.000000E+00  0.000000E+00  0.000000E+00  1.382589E+00  6.311247E-02 -3.236623E-05 -1.381147E+00                                                                                                                                                                                                                                                                                                                                                                                                                                                                                              
  6.250000E+02  1.250000E+02 -4.725000E+03  2.117308E-06  1.607163E-08 -1.213739E-10 -2.117247E-06  1.151878E-08  8.924366E-11 -6.733877E-13 -1.151844E-08  0.000000E+00  0.000000E+00  0.000000E+00  0.000000E+00  0.000000E+00  0.000000E+00  0.000000E+00  0.000000E+00  1.360090E+00  1.442025E-02 -1.080110E-04 -1.360013E+00                                                                                                                                                                                                                                                                                                                                                                                                                                                                                              
  7.600000E+02  1.250000E+02 -4.725000E+03  2.116071E-06 -4.240227E-09 -1.766533E-10 -2.116066E-06  1.151301E-08 -2.352839E-11 -9.802268E-13 -1.151299E-08  0.000000E+00  0.000000E+00  0.000000E+00  0.000000E+00  0.000000E+00  0.000000E+00  0.000000E+00  0.000000E+00  1.360029E+00 -3.776600E-03 -1.573090E-04 -1.360024E+00                                                                                                                                                                                                                                                                                                                                                                                                                                                                                              
  7.800000E+02  1.250000E+02 -4.725000E+03  2.115871E-06 -7.370659E-09 -1.853150E-10 -2.115858E-06  1.151238E-08 -4.090247E-11 -1.028356E-12 -1.151230E-08  0.000000E+00  0.000000E+00  0.000000E+00  0.000000E+00  0.000000E+00  0.000000E+00  0.000000E+00  0.000000E+00  1.360267E+00 -6.567587E-03 -1.650690E-04 -1.360251E+00                                                                                                                                                                                                                                                                                                                                                                                                                                                                                              
  8.000000E+02  1.250000E+02 -4.725000E+03  2.115663E-06 -1.059618E-08 -1.945229E-10 -2.115637E-06  1.151215E-08 -5.882480E-11 -1.079591E-12 -1.151200E-08  0.000000E+00  0.000000E+00  0.000000E+00  0.000000E+00  0.000000E+00  0.000000E+00  0.000000E+00  0.000000E+00  1.360861E+00 -9.470402E-03 -1.733688E-04 -1.360829E+00                                                                                                                                                                                                                                                                                                                                                                                                                                                                                              
  9.350000E+02  1.250000E+02 -4.725000E+03  2.116432E-06 -3.809937E-08 -2.606334E-10 -2.116089E-06  1.152423E-08 -2.117694E-10 -1.448113E-12 -1.152228E-08  0.000000E+00  0.000000E+00  0.000000E+00  0.000000E+00  0.000000E+00  0.000000E+00  0.000000E+00  0.000000E+00  1.368250E+00 -3.429272E-02 -2.334239E-04 -1.367820E+00                                                                                                                                                                                                                                                                                                                                                                                                                                                                                              
  1.185000E+03  1.250000E+02 -4.725000E+03  2.138431E-06 -1.032867E-07 -5.070708E-10 -2.135935E-06  1.165984E-08 -5.748546E-10 -2.820986E-12 -1.164566E-08  0.000000E+00  0.000000E+00  0.000000E+00  0.000000E+00  0.000000E+00  0.000000E+00  0.000000E+00  0.000000E+00  1.406667E+00 -9.368578E-02 -4.568552E-04 -1.403544E+00                                                                                                                                                                                                                                                                                                                                                                                                                                                                                              