Title="TOUGHREACT V3.30-OMP flowvector.tec: Liq & Gas Fluxes (kg/s/m^2), Pore Velocities (m/s), & Heat Fluxes (J/s/m2)"                                                                                                                                                                                                                                                                                                                                                                                                                                                                                                                                                                                                                                                                                                         
Variables= "X(m)"     "Y(m)"      "Z(m)"     "FluxLiq"   "FluxLiq_X"   "FluxLiq_Y"   "FluxLiq_Z"   "PorVelLiq"  "PorVelLiqX"  "PorVelLiqY"  "PorVelLiqZ"     "FluxGas"   "FluxGas_X"   "FluxGas_Y"   "FluxGas_Z"   "PorVelGas"  "PorVelGasX"  "PorVelGasY"  "PorVelGasZ"    "HeatFlux"  "HeatFlux_X"  "HeatFlux_Y"  "HeatFlux_Z"                                                                                                                                                                                                                                                                                                                                                                                                                                                                                                
Zone T= "6.70000000E+09 sec" I=     9 J=    10 K=    23 F=Point
  1.250000E+02  1.250000E+02 -5.425000E+03  1.024410E-06  0.000000E+00  0.000000E+00 -1.024410E-06  5.987624E-09  0.000000E+00  0.000000E+00 -5.987624E-09  0.000000E+00  0.000000E+00  0.000000E+00  0.000000E+00  0.000000E+00  0.000000E+00  0.000000E+00  0.000000E+00  1.062995E+00  0.000000E+00  0.000000E+00 -1.062995E+00                                                                                                                                                                                                                                                                                                                                                                                                                                                                                              
  3.750000E+02  1.250000E+02 -5.425000E+03  1.014895E-06  0.000000E+00  0.000000E+00 -1.014895E-06  5.932181E-09  0.000000E+00  0.000000E+00 -5.932181E-09  0.000000E+00  0.000000E+00  0.000000E+00  0.000000E+00  0.000000E+00  0.000000E+00  0.000000E+00  0.000000E+00  1.053180E+00  0.000000E+00  0.000000E+00 -1.053180E+00                                                                                                                                                                                                                                                                                                                                                                                                                                                                                              
  6.250000E+02  1.250000E+02 -5.425000E+03  1.008502E-06  0.000000E+00  0.000000E+00 -1.008502E-06  5.894940E-09  0.000000E+00  0.000000E+00 -5.894940E-09  0.000000E+00  0.000000E+00  0.000000E+00  0.000000E+00  0.000000E+00  0.000000E+00  0.000000E+00  0.000000E+00  1.046598E+00  0.000000E+00  0.000000E+00 -1.046598E+00                                                                                                                                                                                                                                                                                                                                                                                                                                                                                              
  7.600000E+02  1.250000E+02 -5.425000E+03  1.009887E-06  0.000000E+00  0.000000E+00 -1.009887E-06  5.903005E-09  0.000000E+00  0.000000E+00 -5.903005E-09  0.000000E+00  0.000000E+00  0.000000E+00  0.000000E+00  0.000000E+00  0.000000E+00  0.000000E+00  0.000000E+00  1.048020E+00  0.000000E+00  0.000000E+00 -1.048020E+00                                                                                                                                                                                                                                                                                                                                                                                                                                                                                              
  7.800000E+02  1.250000E+02 -5.425000E+03  1.010151E-06  0.000000E+00  0.000000E+00 -1.010151E-06  5.904539E-09  0.000000E+00  0.000000E+00 -5.904539E-09  0.000000E+00  0.000000E+00  0.000000E+00  0.000000E+00  0.000000E+00  0.000000E+00  0.000000E+00  0.000000E+00  1.048291E+00  0.000000E+00  0.000000E+00 -1.048291E+00                                                                                                                                                                                                                                                                                                                                                                                                                                                                                              
  8.000000E+02  1.250000E+02 -5.425000E+03  1.010472E-06  0.000000E+00  0.000000E+00 -1.010472E-06  5.906411E-09  0.000000E+00  0.000000E+00 -5.906411E-09  0.000000E+00  0.000000E+00  0.000000E+00  0.000000E+00  0.000000E+00  0.000000E+00  0.000000E+00  0.000000E+00  1.048622E+00  0.000000E+00  0.000000E+00 -1.048622E+00                                                                                                                                                                                                                                                                                                                                                                                                                                                                                              
  9.350000E+02  1.250000E+02 -5.425000E+03  1.013028E-06  0.000000E+00  0.000000E+00 -1.013028E-06  5.921307E-09  0.000000E+00  0.000000E+00 -5.921307E-09  0.000000E+00  0.000000E+00  0.000000E+00  0.000000E+00  0.000000E+00  0.000000E+00  0.000000E+00  0.000000E+00  1.051257E+00  0.000000E+00  0.000000E+00 -1.051257E+00                                                                                                                                                                                                                                                                                                                                                                                                                                                                                              
  1.185000E+03  1.250000E+02 -5.425000E+03  1.025913E-06  0.000000E+00  0.000000E+00 -1.025913E-06  5.996405E-09  0.000000E+00  0.000000E+00 -5.996405E-09  0.000000E+00  0.000000E+00  0.000000E+00  0.000000E+00  0.000000E+00  0.000000E+00  0.000000E+00  0.000000E+00  1.064567E+00  0.000000E+00  0.000000E+00 -1.064567E+00                                                                                                                                                                                                                                                                                                                                                                                                                                                                                              
  1.435000E+03  1.250000E+02 -5.425000E+03  1.039490E-06  0.000000E+00  0.000000E+00 -1.039490E-06  6.075533E-09  0.000000E+00  0.000000E+00 -6.075533E-09  0.000000E+00  0.000000E+00  0.000000E+00  0.000000E+00  0.000000E+00  0.000000E+00  0.000000E+00  0.000000E+00  1.078600E+00  0.000000E+00  0.000000E+00 -1.078600E+00                                                                                                                                                                                                                                                                                                                                                                                                                                                                                              
  1.250000E+02  1.250000E+02 -5.225000E+03  2.062861E-06  7.671973E-09 -8.045006E-11 -2.062847E-06  1.196135E-08  4.457958E-11 -4.674663E-13 -1.196127E-08  0.000000E+00  0.000000E+00  0.000000E+00  0.000000E+00  0.000000E+00  0.000000E+00  0.000000E+00  0.000000E+00  2.090275E+00  7.960946E-03 -8.348030E-05 -2.090260E+00                                                                                                                                                                                                                                                                                                                                                                                                                                                                                              
  3.750000E+02  1.250000E+02 -5.225000E+03  2.033632E-06  1.282926E-08 -9.889978E-11 -2.033592E-06  1.179291E-08  7.454822E-11 -5.746938E-13 -1.179267E-08  0.000000E+00  0.000000E+00  0.000000E+00  0.000000E+00  0.000000E+00  0.000000E+00  0.000000E+00  0.000000E+00  2.060838E+00  1.331279E-02 -1.026306E-04 -2.060795E+00                                                                                                                                                                                                                                                                                                                                                                                                                                                                                              
  6.250000E+02  1.250000E+02 -5.225000E+03  2.016072E-06  3.086789E-09 -1.339723E-10 -2.016069E-06  1.169156E-08  1.793691E-11 -7.785194E-13 -1.169155E-08  0.000000E+00  0.000000E+00  0.000000E+00  0.000000E+00  0.000000E+00  0.000000E+00  0.000000E+00  0.000000E+00  2.043005E+00  3.203155E-03 -1.390330E-04 -2.043002E+00                                                                                                                                                                                                                                                                                                                                                                                                                                                                                              
  7.600000E+02  1.250000E+02 -5.225000E+03  2.018722E-06 -4.726519E-09 -1.615303E-10 -2.018716E-06  1.170686E-08 -2.746585E-11 -9.386527E-13 -1.170682E-08  0.000000E+00  0.000000E+00  0.000000E+00  0.000000E+00  0.000000E+00  0.000000E+00  0.000000E+00  0.000000E+00  2.045679E+00 -4.904985E-03 -1.676296E-04 -2.045673E+00                                                                                                                                                                                                                                                                                                                                                                                                                                                                                              
  7.800000E+02  1.250000E+02 -5.225000E+03  2.019269E-06 -5.895696E-09 -1.657050E-10 -2.019261E-06  1.171002E-08 -3.425986E-11 -9.629110E-13 -1.170997E-08  0.000000E+00  0.000000E+00  0.000000E+00  0.000000E+00  0.000000E+00  0.000000E+00  0.000000E+00  0.000000E+00  2.046240E+00 -6.118293E-03 -1.719616E-04 -2.046230E+00                                                                                                                                                                                                                                                                                                                                                                                                                                                                                              
  8.000000E+02  1.250000E+02 -5.225000E+03  2.019971E-06 -7.058111E-09 -1.699698E-10 -2.019959E-06  1.171408E-08 -4.101443E-11 -9.876924E-13 -1.171401E-08  0.000000E+00  0.000000E+00  0.000000E+00  0.000000E+00  0.000000E+00  0.000000E+00  0.000000E+00  0.000000E+00  2.046966E+00 -7.324520E-03 -1.763870E-04 -2.046953E+00                                                                                                                                                                                                                                                                                                                                                                                                                                                                                              
  9.350000E+02  1.250000E+02 -5.225000E+03  2.025741E-06 -1.420402E-08 -1.993514E-10 -2.025691E-06  1.174752E-08 -8.253633E-11 -1.158415E-12 -1.174723E-08  0.000000E+00  0.000000E+00  0.000000E+00  0.000000E+00  0.000000E+00  0.000000E+00  0.000000E+00  0.000000E+00  2.052974E+00 -1.473941E-02 -2.068743E-04 -2.052921E+00                                                                                                                                                                                                                                                                                                                                                                                                                                                                                              
  1.185000E+03  1.250000E+02 -5.225000E+03  2.057520E-06 -2.132614E-08 -2.643363E-10 -2.057409E-06  1.193086E-08 -1.239170E-10 -1.535961E-12 -1.193022E-08  0.000000E+00  0.000000E+00  0.000000E+00  0.000000E+00  0.000000E+00  0.000000E+00  0.000000E+00  0.000000E+00  2.085077E+00 -2.212908E-02 -2.742956E-04 -2.084959E+00                                                                                                                                                                                                                                                                                                                                                                                                                                                                                              
  1.435000E+03  1.250000E+02 -5.225000E+03  2.096085E-06 -1.094056E-08 -3.110305E-10 -2.096057E-06  1.215313E-08 -6.356932E-11 -1.807197E-12 -1.215297E-08  0.000000E+00  0.000000E+00  0.000000E+00  0.000000E+00  0.000000E+00  0.000000E+00  0.000000E+00  0.000000E+00  2.123898E+00 -1.135220E-02 -3.227328E-04 -2.123867E+00                                                                                                                                                                                                                                                                                                                                                                                                                                                                                              
  1.250000E+02  1.250000E+02 -4.975000E+03  2.114441E-06  2.725589E-08 -9.895173E-11 -2.114265E-06  1.205134E-08  1.557740E-10 -5.655375E-13 -1.205034E-08  0.000000E+00  0.000000E+00  0.000000E+00  0.000000E+00  0.000000E+00  0.000000E+00  0.000000E+00  0.000000E+00  2.024405E+00  2.696264E-02 -9.788709E-05 -2.024226E+00                                                                                                                                                                                                                                                                                                                                                                                                                                                                                              
  3.750000E+02  1.250000E+02 -4.975000E+03  2.037272E-06  4.337045E-08 -1.458831E-10 -2.036811E-06  1.160962E-08  2.478758E-10 -8.338050E-13 -1.160697E-08  0.000000E+00  0.000000E+00  0.000000E+00  0.000000E+00  0.000000E+00  0.000000E+00  0.000000E+00  0.000000E+00  1.944157E+00  4.290190E-02 -1.442961E-04 -1.943684E+00                                                                                                                                                                                                                                                                                                                                                                                                                                                                                              
  6.250000E+02  1.250000E+02 -4.975000E+03  2.005731E-06  1.176397E-08 -2.252208E-10 -2.005696E-06  1.142594E-08  6.723597E-11 -1.287256E-12 -1.142574E-08  0.000000E+00  0.000000E+00  0.000000E+00  0.000000E+00  0.000000E+00  0.000000E+00  0.000000E+00  0.000000E+00  1.907406E+00  1.163687E-02 -2.227258E-04 -1.907371E+00                                                                                                                                                                                                                                                                                                                                                                                                                                                                                              
  7.600000E+02  1.250000E+02 -4.975000E+03  2.007179E-06 -1.041356E-08 -2.853294E-10 -2.007152E-06  1.143459E-08 -5.951859E-11 -1.630796E-12 -1.143444E-08  0.000000E+00  0.000000E+00  0.000000E+00  0.000000E+00  0.000000E+00  0.000000E+00  0.000000E+00  0.000000E+00  1.909418E+00 -1.029824E-02 -2.821685E-04 -1.909391E+00                                                                                                                                                                                                                                                                                                                                                                                                                                                                                              
  7.800000E+02  1.250000E+02 -4.975000E+03  2.007706E-06 -1.384021E-08 -2.944905E-10 -2.007658E-06  1.143778E-08 -7.910365E-11 -1.683157E-12 -1.143750E-08  0.000000E+00  0.000000E+00  0.000000E+00  0.000000E+00  0.000000E+00  0.000000E+00  0.000000E+00  0.000000E+00  1.910185E+00 -1.368715E-02 -2.912305E-04 -1.910136E+00                                                                                                                                                                                                                                                                                                                                                                                                                                                                                              
  8.000000E+02  1.250000E+02 -4.975000E+03  2.008572E-06 -1.725760E-08 -3.039131E-10 -2.008498E-06  1.144307E-08 -9.863662E-11 -1.737018E-12 -1.144265E-08  0.000000E+00  0.000000E+00  0.000000E+00  0.000000E+00  0.000000E+00  0.000000E+00  0.000000E+00  0.000000E+00  1.911519E+00 -1.706869E-02 -3.005546E-04 -1.911443E+00                                                                                                                                                                                                                                                                                                                                                                                                                                                                                              
  9.350000E+02  1.250000E+02 -4.975000E+03  2.016566E-06 -3.846767E-08 -3.692913E-10 -2.016199E-06  1.149192E-08 -2.198586E-10 -2.110767E-12 -1.148982E-08  0.000000E+00  0.000000E+00  0.000000E+00  0.000000E+00  0.000000E+00  0.000000E+00  0.000000E+00  0.000000E+00  1.923783E+00 -3.805266E-02 -3.652802E-04 -1.923406E+00                                                                                                                                                                                                                                                                                                                                                                                                                                                                                              
  1.185000E+03  1.250000E+02 -4.975000E+03  2.066951E-06 -6.480997E-08 -5.338046E-10 -2.065935E-06  1.178079E-08 -3.703951E-10 -3.050892E-12 -1.177497E-08  0.000000E+00  0.000000E+00  0.000000E+00  0.000000E+00  0.000000E+00  0.000000E+00  0.000000E+00  0.000000E+00  1.976646E+00 -6.411482E-02 -5.280585E-04 -1.975606E+00                                                                                                                                                                                                                                                                                                                                                                                                                                                                                              
  1.435000E+03  1.250000E+02 -4.975000E+03  2.158518E-06 -3.582267E-08 -6.608697E-10 -2.158221E-06  1.230363E-08 -2.047222E-10 -3.776778E-12 -1.230193E-08  0.000000E+00  0.000000E+00  0.000000E+00  0.000000E+00  0.000000E+00  0.000000E+00  0.000000E+00  0.000000E+00  2.070313E+00 -3.543954E-02 -6.538022E-04 -2.070009E+00                                                                                                                                                                                                                                                                                                                                                                                                                                                                                              
  1.250000E+02  1.250000E+02 -4.725000E+03  2.278157E-06  8.061355E-08  4.700130E-11 -2.276730E-06  1.251115E-08  4.511842E-10  2.633146E-13 -1.250301E-08  0.000000E+00  0.000000E+00  0.000000E+00  0.000000E+00  0.000000E+00  0.000000E+00  0.000000E+00  0.000000E+00  1.638366E+00  7.470394E-02  4.355573E-05 -1.636662E+00                                                                                                                                                                                                                                                                                                                                                                                                                                                                                              
  3.750000E+02  1.250000E+02 -4.725000E+03  2.038568E-06  1.127137E-07 -5.731488E-11 -2.035450E-06  1.115141E-08  6.305540E-10 -3.205539E-13 -1.113357E-08  0.000000E+00  0.000000E+00  0.000000E+00  0.000000E+00  0.000000E+00  0.000000E+00  0.000000E+00  0.000000E+00  1.362511E+00  1.042173E-01 -5.269512E-05 -1.358519E+00                                                                                                                                                                                                                                                                                                                                                                                                                                                                                              
  6.250000E+02  1.250000E+02 -4.725000E+03  2.008626E-06  2.820096E-08 -1.733940E-10 -2.008428E-06  1.096950E-08  1.575971E-10 -9.681411E-13 -1.096837E-08  0.000000E+00  0.000000E+00  0.000000E+00  0.000000E+00  0.000000E+00  0.000000E+00  0.000000E+00  0.000000E+00  1.315371E+00  2.595233E-02 -1.582524E-04 -1.315115E+00                                                                                                                                                                                                                                                                                                                                                                                                                                                                                              
  7.600000E+02  1.250000E+02 -4.725000E+03  2.006547E-06 -1.085253E-08 -2.495303E-10 -2.006518E-06  1.095931E-08 -6.060343E-11 -1.393456E-12 -1.095915E-08  0.000000E+00  0.000000E+00  0.000000E+00  0.000000E+00  0.000000E+00  0.000000E+00  0.000000E+00  0.000000E+00  1.315085E+00 -9.913046E-03 -2.278893E-04 -1.315047E+00                                                                                                                                                                                                                                                                                                                                                                                                                                                                                              
  7.800000E+02  1.250000E+02 -4.725000E+03  2.006239E-06 -1.702331E-08 -2.615048E-10 -2.006167E-06  1.095814E-08 -9.507188E-11 -1.460421E-12 -1.095773E-08  0.000000E+00  0.000000E+00  0.000000E+00  0.000000E+00  0.000000E+00  0.000000E+00  0.000000E+00  0.000000E+00  1.315372E+00 -1.555615E-02 -2.388919E-04 -1.315280E+00                                                                                                                                                                                                                                                                                                                                                                                                                                                                                              
  8.000000E+02  1.250000E+02 -4.725000E+03  2.005894E-06 -2.335890E-08 -2.742721E-10 -2.005758E-06  1.095721E-08 -1.305062E-10 -1.531917E-12 -1.095643E-08  0.000000E+00  0.000000E+00  0.000000E+00  0.000000E+00  0.000000E+00  0.000000E+00  0.000000E+00  0.000000E+00  1.316028E+00 -2.140993E-02 -2.506903E-04 -1.315853E+00                                                                                                                                                                                                                                                                                                                                                                                                                                                                                              
  9.350000E+02  1.250000E+02 -4.725000E+03  2.013239E-06 -6.970729E-08 -3.662739E-10 -2.012032E-06  1.100598E-08 -3.899006E-10 -2.048160E-12 -1.099908E-08  0.000000E+00  0.000000E+00  0.000000E+00  0.000000E+00  0.000000E+00  0.000000E+00  0.000000E+00  0.000000E+00  1.330600E+00 -6.430324E-02 -3.364215E-04 -1.329046E+00                                                                                                                                                                                                                                                                                                                                                                                                                                                                                              
  1.185000E+03  1.250000E+02 -4.725000E+03  2.078559E-06 -1.551004E-07 -6.802823E-10 -2.072764E-06  1.138492E-08 -8.684110E-10 -3.808355E-12 -1.135175E-08  0.000000E+00  0.000000E+00  0.000000E+00  0.000000E+00  0.000000E+00  0.000000E+00  0.000000E+00  0.000000E+00  1.417461E+00 -1.438900E-01 -6.281906E-04 -1.410139E+00                                                                                                                                                                                                                                                                                                                                                                                                                                                                                              