Title="TOUGHREACT V3.30-OMP flowvector.tec: Liq & Gas Fluxes (kg/s/m^2), Pore Velocities (m/s), & Heat Fluxes (J/s/m2)"                                                                                                                                                                                                                                                                                                                                                                                                                                                                                                                                                                                                                                                                                                         
Variables= "X(m)"     "Y(m)"      "Z(m)"     "FluxLiq"   "FluxLiq_X"   "FluxLiq_Y"   "FluxLiq_Z"   "PorVelLiq"  "PorVelLiqX"  "PorVelLiqY"  "PorVelLiqZ"     "FluxGas"   "FluxGas_X"   "FluxGas_Y"   "FluxGas_Z"   "PorVelGas"  "PorVelGasX"  "PorVelGasY"  "PorVelGasZ"    "HeatFlux"  "HeatFlux_X"  "HeatFlux_Y"  "HeatFlux_Z"                                                                                                                                                                                                                                                                                                                                                                                                                                                                                                
Zone T= "2.30000000E+10 sec" I=     9 J=    10 K=    23 F=Point
  1.250000E+02  1.250000E+02 -5.425000E+03  1.061882E-06  0.000000E+00  0.000000E+00 -1.061882E-06  6.194868E-09  0.000000E+00  0.000000E+00 -6.194868E-09  0.000000E+00  0.000000E+00  0.000000E+00  0.000000E+00  0.000000E+00  0.000000E+00  0.000000E+00  0.000000E+00  1.088498E+00  0.000000E+00  0.000000E+00 -1.088498E+00                                                                                                                                                                                                                                                                                                                                                                                                                                                                                              
  3.750000E+02  1.250000E+02 -5.425000E+03  1.060078E-06  0.000000E+00  0.000000E+00 -1.060078E-06  6.184354E-09  0.000000E+00  0.000000E+00 -6.184354E-09  0.000000E+00  0.000000E+00  0.000000E+00  0.000000E+00  0.000000E+00  0.000000E+00  0.000000E+00  0.000000E+00  1.086634E+00  0.000000E+00  0.000000E+00 -1.086634E+00                                                                                                                                                                                                                                                                                                                                                                                                                                                                                              
  6.250000E+02  1.250000E+02 -5.425000E+03  1.058822E-06  0.000000E+00  0.000000E+00 -1.058822E-06  6.176974E-09  0.000000E+00  0.000000E+00 -6.176974E-09  0.000000E+00  0.000000E+00  0.000000E+00  0.000000E+00  0.000000E+00  0.000000E+00  0.000000E+00  0.000000E+00  1.085263E+00  0.000000E+00  0.000000E+00 -1.085263E+00                                                                                                                                                                                                                                                                                                                                                                                                                                                                                              
  7.600000E+02  1.250000E+02 -5.425000E+03  1.059137E-06  0.000000E+00  0.000000E+00 -1.059137E-06  6.178803E-09  0.000000E+00  0.000000E+00 -6.178803E-09  0.000000E+00  0.000000E+00  0.000000E+00  0.000000E+00  0.000000E+00  0.000000E+00  0.000000E+00  0.000000E+00  1.085582E+00  0.000000E+00  0.000000E+00 -1.085582E+00                                                                                                                                                                                                                                                                                                                                                                                                                                                                                              
  7.800000E+02  1.250000E+02 -5.425000E+03  1.059197E-06  0.000000E+00  0.000000E+00 -1.059197E-06  6.179156E-09  0.000000E+00  0.000000E+00 -6.179156E-09  0.000000E+00  0.000000E+00  0.000000E+00  0.000000E+00  0.000000E+00  0.000000E+00  0.000000E+00  0.000000E+00  1.085647E+00  0.000000E+00  0.000000E+00 -1.085647E+00                                                                                                                                                                                                                                                                                                                                                                                                                                                                                              
  8.000000E+02  1.250000E+02 -5.425000E+03  1.059272E-06  0.000000E+00  0.000000E+00 -1.059272E-06  6.179600E-09  0.000000E+00  0.000000E+00 -6.179600E-09  0.000000E+00  0.000000E+00  0.000000E+00  0.000000E+00  0.000000E+00  0.000000E+00  0.000000E+00  0.000000E+00  1.085735E+00  0.000000E+00  0.000000E+00 -1.085735E+00                                                                                                                                                                                                                                                                                                                                                                                                                                                                                              
  9.350000E+02  1.250000E+02 -5.425000E+03  1.059861E-06  0.000000E+00  0.000000E+00 -1.059861E-06  6.183115E-09  0.000000E+00  0.000000E+00 -6.183115E-09  0.000000E+00  0.000000E+00  0.000000E+00  0.000000E+00  0.000000E+00  0.000000E+00  0.000000E+00  0.000000E+00  1.086441E+00  0.000000E+00  0.000000E+00 -1.086441E+00                                                                                                                                                                                                                                                                                                                                                                                                                                                                                              
  1.185000E+03  1.250000E+02 -5.425000E+03  1.062228E-06  0.000000E+00  0.000000E+00 -1.062228E-06  6.196876E-09  0.000000E+00  0.000000E+00 -6.196876E-09  0.000000E+00  0.000000E+00  0.000000E+00  0.000000E+00  0.000000E+00  0.000000E+00  0.000000E+00  0.000000E+00  1.088849E+00  0.000000E+00  0.000000E+00 -1.088849E+00                                                                                                                                                                                                                                                                                                                                                                                                                                                                                              
  1.435000E+03  1.250000E+02 -5.425000E+03  1.065005E-06  0.000000E+00  0.000000E+00 -1.065005E-06  6.213019E-09  0.000000E+00  0.000000E+00 -6.213019E-09  0.000000E+00  0.000000E+00  0.000000E+00  0.000000E+00  0.000000E+00  0.000000E+00  0.000000E+00  0.000000E+00  1.091672E+00  0.000000E+00  0.000000E+00 -1.091672E+00                                                                                                                                                                                                                                                                                                                                                                                                                                                                                              
  1.250000E+02  1.250000E+02 -5.225000E+03  2.130703E-06  1.451215E-09 -7.166555E-12 -2.130702E-06  1.230954E-08  8.400650E-12 -4.148510E-14 -1.230953E-08  0.000000E+00  0.000000E+00  0.000000E+00  0.000000E+00  0.000000E+00  0.000000E+00  0.000000E+00  0.000000E+00  2.118971E+00  1.487590E-03 -7.346182E-06 -2.118970E+00                                                                                                                                                                                                                                                                                                                                                                                                                                                                                              
  3.750000E+02  1.250000E+02 -5.225000E+03  2.125282E-06  2.441897E-09 -1.481205E-11 -2.125281E-06  1.227730E-08  1.413536E-11 -8.574265E-14 -1.227730E-08  0.000000E+00  0.000000E+00  0.000000E+00  0.000000E+00  0.000000E+00  0.000000E+00  0.000000E+00  0.000000E+00  2.112208E+00  2.503090E-03 -1.518310E-05 -2.112207E+00                                                                                                                                                                                                                                                                                                                                                                                                                                                                                              
  6.250000E+02  1.250000E+02 -5.225000E+03  2.121862E-06  5.186068E-10 -2.708532E-11 -2.121862E-06  1.225640E-08  3.002057E-12 -1.567859E-13 -1.225640E-08  0.000000E+00  0.000000E+00  0.000000E+00  0.000000E+00  0.000000E+00  0.000000E+00  0.000000E+00  0.000000E+00  2.107309E+00  5.316376E-04 -2.776168E-05 -2.107309E+00                                                                                                                                                                                                                                                                                                                                                                                                                                                                                              
  7.600000E+02  1.250000E+02 -5.225000E+03  2.122422E-06 -1.065203E-09 -3.599865E-11 -2.122421E-06  1.225972E-08 -6.166021E-12 -2.083812E-13 -1.225972E-08  0.000000E+00  0.000000E+00  0.000000E+00  0.000000E+00  0.000000E+00  0.000000E+00  0.000000E+00  0.000000E+00  2.107990E+00 -1.091802E-03 -3.689746E-05 -2.107990E+00                                                                                                                                                                                                                                                                                                                                                                                                                                                                                              
  7.800000E+02  1.250000E+02 -5.225000E+03  2.122548E-06 -1.306364E-09 -3.735122E-11 -2.122548E-06  1.226050E-08 -7.562010E-12 -2.162108E-13 -1.226050E-08  0.000000E+00  0.000000E+00  0.000000E+00  0.000000E+00  0.000000E+00  0.000000E+00  0.000000E+00  0.000000E+00  2.108177E+00 -1.338994E-03 -3.828393E-05 -2.108177E+00                                                                                                                                                                                                                                                                                                                                                                                                                                                                                              
  8.000000E+02  1.250000E+02 -5.225000E+03  2.122729E-06 -1.543267E-09 -3.873593E-11 -2.122728E-06  1.226165E-08 -8.933419E-12 -2.242270E-13 -1.226164E-08  0.000000E+00  0.000000E+00  0.000000E+00  0.000000E+00  0.000000E+00  0.000000E+00  0.000000E+00  0.000000E+00  2.108486E+00 -1.581902E-03 -3.970364E-05 -2.108486E+00                                                                                                                                                                                                                                                                                                                                                                                                                                                                                              
  9.350000E+02  1.250000E+02 -5.225000E+03  2.124203E-06 -2.743533E-09 -4.830206E-11 -2.124201E-06  1.227107E-08 -1.588151E-11 -2.796090E-13 -1.227105E-08  0.000000E+00  0.000000E+00  0.000000E+00  0.000000E+00  0.000000E+00  0.000000E+00  0.000000E+00  0.000000E+00  2.111043E+00 -2.812306E-03 -4.951338E-05 -2.111041E+00                                                                                                                                                                                                                                                                                                                                                                                                                                                                                              
  1.185000E+03  1.250000E+02 -5.225000E+03  2.129582E-06 -4.159590E-09 -7.218917E-11 -2.129577E-06  1.230278E-08 -2.407853E-11 -4.178812E-13 -1.230276E-08  0.000000E+00  0.000000E+00  0.000000E+00  0.000000E+00  0.000000E+00  0.000000E+00  0.000000E+00  0.000000E+00  2.117408E+00 -4.263788E-03 -7.399829E-05 -2.117404E+00                                                                                                                                                                                                                                                                                                                                                                                                                                                                                              
  1.435000E+03  1.250000E+02 -5.225000E+03  2.137577E-06 -2.246087E-09 -9.590978E-11 -2.137576E-06  1.234978E-08 -1.300181E-11 -5.551852E-13 -1.234977E-08  0.000000E+00  0.000000E+00  0.000000E+00  0.000000E+00  0.000000E+00  0.000000E+00  0.000000E+00  0.000000E+00  2.126732E+00 -2.302328E-03 -9.831120E-05 -2.126731E+00                                                                                                                                                                                                                                                                                                                                                                                                                                                                                              
  1.250000E+02  1.250000E+02 -4.975000E+03  2.154624E-06  4.415015E-09  3.316963E-12 -2.154620E-06  1.214309E-08  2.504722E-11  1.882124E-14 -1.214307E-08  0.000000E+00  0.000000E+00  0.000000E+00  0.000000E+00  0.000000E+00  0.000000E+00  0.000000E+00  0.000000E+00  1.921648E+00  4.256609E-03  3.197953E-06 -1.921643E+00                                                                                                                                                                                                                                                                                                                                                                                                                                                                                              
  3.750000E+02  1.250000E+02 -4.975000E+03  2.141550E-06  6.938139E-09 -1.732817E-11 -2.141539E-06  1.206225E-08  3.935628E-11 -9.828969E-14 -1.206218E-08  0.000000E+00  0.000000E+00  0.000000E+00  0.000000E+00  0.000000E+00  0.000000E+00  0.000000E+00  0.000000E+00  1.900382E+00  6.685862E-03 -1.668345E-05 -1.900370E+00                                                                                                                                                                                                                                                                                                                                                                                                                                                                                              
  6.250000E+02  1.250000E+02 -4.975000E+03  2.136129E-06  1.722127E-09 -4.177150E-11 -2.136128E-06  1.202526E-08  9.767204E-12 -2.368518E-13 -1.202526E-08  0.000000E+00  0.000000E+00  0.000000E+00  0.000000E+00  0.000000E+00  0.000000E+00  0.000000E+00  0.000000E+00  1.887630E+00  1.659050E-03 -4.016076E-05 -1.887629E+00                                                                                                                                                                                                                                                                                                                                                                                                                                                                                              
  7.600000E+02  1.250000E+02 -4.975000E+03  2.136079E-06 -1.906869E-09 -5.834714E-11 -2.136078E-06  1.202556E-08 -1.081259E-11 -3.308490E-13 -1.202556E-08  0.000000E+00  0.000000E+00  0.000000E+00  0.000000E+00  0.000000E+00  0.000000E+00  0.000000E+00  0.000000E+00  1.888282E+00 -1.833621E-03 -5.610421E-05 -1.888281E+00                                                                                                                                                                                                                                                                                                                                                                                                                                                                                              
  7.800000E+02  1.250000E+02 -4.975000E+03  2.136188E-06 -2.517357E-09 -6.087282E-11 -2.136186E-06  1.202642E-08 -1.427458E-11 -3.451755E-13 -1.202641E-08  0.000000E+00  0.000000E+00  0.000000E+00  0.000000E+00  0.000000E+00  0.000000E+00  0.000000E+00  0.000000E+00  1.888668E+00 -2.420875E-03 -5.853609E-05 -1.888667E+00                                                                                                                                                                                                                                                                                                                                                                                                                                                                                              
  8.000000E+02  1.250000E+02 -4.975000E+03  2.136482E-06 -3.119656E-09 -6.347368E-11 -2.136480E-06  1.202857E-08 -1.769142E-11 -3.599346E-13 -1.202856E-08  0.000000E+00  0.000000E+00  0.000000E+00  0.000000E+00  0.000000E+00  0.000000E+00  0.000000E+00  0.000000E+00  1.889514E+00 -3.001849E-03 -6.104429E-05 -1.889511E+00                                                                                                                                                                                                                                                                                                                                                                                                                                                                                              
  9.350000E+02  1.250000E+02 -4.975000E+03  2.139052E-06 -6.099314E-09 -8.154013E-11 -2.139043E-06  1.204719E-08 -3.459740E-11 -4.625005E-13 -1.204714E-08  0.000000E+00  0.000000E+00  0.000000E+00  0.000000E+00  0.000000E+00  0.000000E+00  0.000000E+00  0.000000E+00  1.896709E+00 -5.875928E-03 -7.849584E-05 -1.896700E+00                                                                                                                                                                                                                                                                                                                                                                                                                                                                                              
  1.185000E+03  1.250000E+02 -4.975000E+03  2.145007E-06 -1.114642E-08 -1.335073E-10 -2.144978E-06  1.208594E-08 -6.324242E-11 -7.574577E-13 -1.208578E-08  0.000000E+00  0.000000E+00  0.000000E+00  0.000000E+00  0.000000E+00  0.000000E+00  0.000000E+00  0.000000E+00  1.908710E+00 -1.075055E-02 -1.286553E-04 -1.908680E+00                                                                                                                                                                                                                                                                                                                                                                                                                                                                                              
  1.435000E+03  1.250000E+02 -4.975000E+03  2.163909E-06 -6.755274E-09 -2.005106E-10 -2.163899E-06  1.220045E-08 -3.833259E-11 -1.138011E-12 -1.220039E-08  0.000000E+00  0.000000E+00  0.000000E+00  0.000000E+00  0.000000E+00  0.000000E+00  0.000000E+00  0.000000E+00  1.936693E+00 -6.519017E-03 -1.935009E-04 -1.936682E+00                                                                                                                                                                                                                                                                                                                                                                                                                                                                                              
  1.250000E+02  1.250000E+02 -4.725000E+03  2.212143E-06  7.267336E-09  4.285250E-11 -2.212131E-06  1.191372E-08  3.957806E-11  2.336049E-13 -1.191365E-08  0.000000E+00  0.000000E+00  0.000000E+00  0.000000E+00  0.000000E+00  0.000000E+00  0.000000E+00  0.000000E+00  1.355530E+00  5.964676E-03  3.517125E-05 -1.355517E+00                                                                                                                                                                                                                                                                                                                                                                                                                                                                                              
  3.750000E+02  1.250000E+02 -4.725000E+03  2.178887E-06  8.038765E-09 -3.243378E-12 -2.178872E-06  1.171974E-08  4.377232E-11 -1.764745E-14 -1.171966E-08  0.000000E+00  0.000000E+00  0.000000E+00  0.000000E+00  0.000000E+00  0.000000E+00  0.000000E+00  0.000000E+00  1.315993E+00  6.591659E-03 -2.636032E-06 -1.315977E+00                                                                                                                                                                                                                                                                                                                                                                                                                                                                                              
  6.250000E+02  1.250000E+02 -4.725000E+03  2.178096E-06  1.328993E-09 -2.021701E-11 -2.178095E-06  1.170493E-08  7.223776E-12 -1.098424E-13 -1.170492E-08  0.000000E+00  0.000000E+00  0.000000E+00  0.000000E+00  0.000000E+00  0.000000E+00  0.000000E+00  0.000000E+00  1.307587E+00  1.076729E-03 -1.630777E-05 -1.307587E+00                                                                                                                                                                                                                                                                                                                                                                                                                                                                                              
  7.600000E+02  1.250000E+02 -4.725000E+03  2.177887E-06  1.124979E-09 -3.138621E-11 -2.177887E-06  1.170452E-08  6.112824E-12 -1.705467E-13 -1.170452E-08  0.000000E+00  0.000000E+00  0.000000E+00  0.000000E+00  0.000000E+00  0.000000E+00  0.000000E+00  0.000000E+00  1.307911E+00  9.077191E-04 -2.533282E-05 -1.307911E+00                                                                                                                                                                                                                                                                                                                                                                                                                                                                                              
  7.800000E+02  1.250000E+02 -4.725000E+03  2.177894E-06  1.137132E-09 -3.313648E-11 -2.177894E-06  1.170492E-08  6.179361E-12 -1.800666E-13 -1.170491E-08  0.000000E+00  0.000000E+00  0.000000E+00  0.000000E+00  0.000000E+00  0.000000E+00  0.000000E+00  0.000000E+00  1.308162E+00  9.179248E-04 -2.675268E-05 -1.308161E+00                                                                                                                                                                                                                                                                                                                                                                                                                                                                                              
  8.000000E+02  1.250000E+02 -4.725000E+03  2.177972E-06  1.114431E-09 -3.500738E-11 -2.177972E-06  1.170608E-08  6.057730E-12 -1.902532E-13 -1.170608E-08  0.000000E+00  0.000000E+00  0.000000E+00  0.000000E+00  0.000000E+00  0.000000E+00  0.000000E+00  0.000000E+00  1.308741E+00  8.999586E-04 -2.827859E-05 -1.308741E+00                                                                                                                                                                                                                                                                                                                                                                                                                                                                                              
  9.350000E+02  1.250000E+02 -4.725000E+03  2.178679E-06 -2.227182E-09 -4.851938E-11 -2.178677E-06  1.171622E-08 -1.212497E-11 -2.639192E-13 -1.171621E-08  0.000000E+00  0.000000E+00  0.000000E+00  0.000000E+00  0.000000E+00  0.000000E+00  0.000000E+00  0.000000E+00  1.313703E+00 -1.823870E-03 -3.937321E-05 -1.313702E+00                                                                                                                                                                                                                                                                                                                                                                                                                                                                                              
  1.185000E+03  1.250000E+02 -4.725000E+03  2.178427E-06 -1.534330E-08 -1.008627E-10 -2.178373E-06  1.172410E-08 -8.362634E-11 -5.493233E-13 -1.172380E-08  0.000000E+00  0.000000E+00  0.000000E+00  0.000000E+00  0.000000E+00  0.000000E+00  0.000000E+00  0.000000E+00  1.321007E+00 -1.265000E-02 -8.238074E-05 -1.320946E+00                                                                                                                                                                                                                                                                                                                                                                                                                                                                                              