Title="TOUGHREACT V3.30-OMP flowvector.tec: Liq & Gas Fluxes (kg/s/m^2), Pore Velocities (m/s), & Heat Fluxes (J/s/m2)"                                                                                                                                                                                                                                                                                                                                                                                                                                                                                                                                                                                                                                                                                                         
Variables= "X(m)"     "Y(m)"      "Z(m)"     "FluxLiq"   "FluxLiq_X"   "FluxLiq_Y"   "FluxLiq_Z"   "PorVelLiq"  "PorVelLiqX"  "PorVelLiqY"  "PorVelLiqZ"     "FluxGas"   "FluxGas_X"   "FluxGas_Y"   "FluxGas_Z"   "PorVelGas"  "PorVelGasX"  "PorVelGasY"  "PorVelGasZ"    "HeatFlux"  "HeatFlux_X"  "HeatFlux_Y"  "HeatFlux_Z"                                                                                                                                                                                                                                                                                                                                                                                                                                                                                                
Zone T= "7.33000000E+10 sec" I=     9 J=    10 K=    23 F=Point
  1.250000E+02  1.250000E+02 -5.425000E+03  1.005084E-06  0.000000E+00  0.000000E+00 -1.005084E-06  5.808814E-09  0.000000E+00  0.000000E+00 -5.808814E-09  0.000000E+00  0.000000E+00  0.000000E+00  0.000000E+00  0.000000E+00  0.000000E+00  0.000000E+00  0.000000E+00  9.620225E-01  0.000000E+00  0.000000E+00 -9.620225E-01                                                                                                                                                                                                                                                                                                                                                                                                                                                                                              
  3.750000E+02  1.250000E+02 -5.425000E+03  1.003785E-06  0.000000E+00  0.000000E+00 -1.003785E-06  5.800346E-09  0.000000E+00  0.000000E+00 -5.800346E-09  0.000000E+00  0.000000E+00  0.000000E+00  0.000000E+00  0.000000E+00  0.000000E+00  0.000000E+00  0.000000E+00  9.595368E-01  0.000000E+00  0.000000E+00 -9.595368E-01                                                                                                                                                                                                                                                                                                                                                                                                                                                                                              
  6.250000E+02  1.250000E+02 -5.425000E+03  1.002718E-06  0.000000E+00  0.000000E+00 -1.002718E-06  5.793324E-09  0.000000E+00  0.000000E+00 -5.793324E-09  0.000000E+00  0.000000E+00  0.000000E+00  0.000000E+00  0.000000E+00  0.000000E+00  0.000000E+00  0.000000E+00  9.574121E-01  0.000000E+00  0.000000E+00 -9.574121E-01                                                                                                                                                                                                                                                                                                                                                                                                                                                                                              
  7.600000E+02  1.250000E+02 -5.425000E+03  1.002885E-06  0.000000E+00  0.000000E+00 -1.002885E-06  5.794363E-09  0.000000E+00  0.000000E+00 -5.794363E-09  0.000000E+00  0.000000E+00  0.000000E+00  0.000000E+00  0.000000E+00  0.000000E+00  0.000000E+00  0.000000E+00  9.576655E-01  0.000000E+00  0.000000E+00 -9.576655E-01                                                                                                                                                                                                                                                                                                                                                                                                                                                                                              
  7.800000E+02  1.250000E+02 -5.425000E+03  1.002928E-06  0.000000E+00  0.000000E+00 -1.002928E-06  5.794644E-09  0.000000E+00  0.000000E+00 -5.794644E-09  0.000000E+00  0.000000E+00  0.000000E+00  0.000000E+00  0.000000E+00  0.000000E+00  0.000000E+00  0.000000E+00  9.577487E-01  0.000000E+00  0.000000E+00 -9.577487E-01                                                                                                                                                                                                                                                                                                                                                                                                                                                                                              
  8.000000E+02  1.250000E+02 -5.425000E+03  1.002998E-06  0.000000E+00  0.000000E+00 -1.002998E-06  5.795114E-09  0.000000E+00  0.000000E+00 -5.795114E-09  0.000000E+00  0.000000E+00  0.000000E+00  0.000000E+00  0.000000E+00  0.000000E+00  0.000000E+00  0.000000E+00  9.579042E-01  0.000000E+00  0.000000E+00 -9.579042E-01                                                                                                                                                                                                                                                                                                                                                                                                                                                                                              
  9.350000E+02  1.250000E+02 -5.425000E+03  1.003555E-06  0.000000E+00  0.000000E+00 -1.003555E-06  5.798898E-09  0.000000E+00  0.000000E+00 -5.798898E-09  0.000000E+00  0.000000E+00  0.000000E+00  0.000000E+00  0.000000E+00  0.000000E+00  0.000000E+00  0.000000E+00  9.591625E-01  0.000000E+00  0.000000E+00 -9.591625E-01                                                                                                                                                                                                                                                                                                                                                                                                                                                                                              
  1.185000E+03  1.250000E+02 -5.425000E+03  1.004706E-06  0.000000E+00  0.000000E+00 -1.004706E-06  5.806216E-09  0.000000E+00  0.000000E+00 -5.806216E-09  0.000000E+00  0.000000E+00  0.000000E+00  0.000000E+00  0.000000E+00  0.000000E+00  0.000000E+00  0.000000E+00  9.611285E-01  0.000000E+00  0.000000E+00 -9.611285E-01                                                                                                                                                                                                                                                                                                                                                                                                                                                                                              
  1.435000E+03  1.250000E+02 -5.425000E+03  1.006244E-06  0.000000E+00  0.000000E+00 -1.006244E-06  5.816171E-09  0.000000E+00  0.000000E+00 -5.816171E-09  0.000000E+00  0.000000E+00  0.000000E+00  0.000000E+00  0.000000E+00  0.000000E+00  0.000000E+00  0.000000E+00  9.639876E-01  0.000000E+00  0.000000E+00 -9.639876E-01                                                                                                                                                                                                                                                                                                                                                                                                                                                                                              
  1.250000E+02  1.250000E+02 -5.225000E+03  2.021378E-06  6.069593E-10  1.711913E-12 -2.021378E-06  1.146756E-08  3.446711E-12  9.723033E-15 -1.146756E-08  0.000000E+00  0.000000E+00  0.000000E+00  0.000000E+00  0.000000E+00  0.000000E+00  0.000000E+00  0.000000E+00  1.801806E+00  5.809546E-04  1.638568E-06 -1.801805E+00                                                                                                                                                                                                                                                                                                                                                                                                                                                                                              
  3.750000E+02  1.250000E+02 -5.225000E+03  2.018154E-06  1.073788E-09  6.751746E-13 -2.018153E-06  1.144533E-08  6.096834E-12  3.833458E-15 -1.144533E-08  0.000000E+00  0.000000E+00  0.000000E+00  0.000000E+00  0.000000E+00  0.000000E+00  0.000000E+00  0.000000E+00  1.794558E+00  1.027205E-03  6.454117E-07 -1.794558E+00                                                                                                                                                                                                                                                                                                                                                                                                                                                                                              
  6.250000E+02  1.250000E+02 -5.225000E+03  2.015591E-06  2.774935E-10 -1.382195E-12 -2.015590E-06  1.142744E-08  1.575434E-12 -7.845396E-15 -1.142744E-08  0.000000E+00  0.000000E+00  0.000000E+00  0.000000E+00  0.000000E+00  0.000000E+00  0.000000E+00  0.000000E+00  1.788630E+00  2.654519E-04 -1.319746E-06 -1.788630E+00                                                                                                                                                                                                                                                                                                                                                                                                                                                                                              
  7.600000E+02  1.250000E+02 -5.225000E+03  2.015876E-06 -4.342987E-10 -2.446030E-12 -2.015876E-06  1.142936E-08 -2.465152E-12 -1.388411E-14 -1.142936E-08  0.000000E+00  0.000000E+00  0.000000E+00  0.000000E+00  0.000000E+00  0.000000E+00  0.000000E+00  0.000000E+00  1.789212E+00 -4.147266E-04 -2.335744E-06 -1.789212E+00                                                                                                                                                                                                                                                                                                                                                                                                                                                                                              
  7.800000E+02  1.250000E+02 -5.225000E+03  2.015971E-06 -5.445700E-10 -2.607471E-12 -2.015971E-06  1.143003E-08 -3.091125E-12 -1.480065E-14 -1.143003E-08  0.000000E+00  0.000000E+00  0.000000E+00  0.000000E+00  0.000000E+00  0.000000E+00  0.000000E+00  0.000000E+00  1.789433E+00 -5.200650E-04 -2.490017E-06 -1.789433E+00                                                                                                                                                                                                                                                                                                                                                                                                                                                                                              
  8.000000E+02  1.250000E+02 -5.225000E+03  2.016147E-06 -6.503951E-10 -2.770966E-12 -2.016146E-06  1.143128E-08 -3.692060E-12 -1.572907E-14 -1.143128E-08  0.000000E+00  0.000000E+00  0.000000E+00  0.000000E+00  0.000000E+00  0.000000E+00  0.000000E+00  0.000000E+00  1.789869E+00 -6.214079E-04 -2.646394E-06 -1.789869E+00                                                                                                                                                                                                                                                                                                                                                                                                                                                                                              
  9.350000E+02  1.250000E+02 -5.225000E+03  2.017576E-06 -9.741897E-10 -3.900321E-12 -2.017576E-06  1.144152E-08 -5.531155E-12 -2.214406E-14 -1.144152E-08  0.000000E+00  0.000000E+00  0.000000E+00  0.000000E+00  0.000000E+00  0.000000E+00  0.000000E+00  0.000000E+00  1.793427E+00 -9.316331E-04 -3.727798E-06 -1.793427E+00                                                                                                                                                                                                                                                                                                                                                                                                                                                                                              
  1.185000E+03  1.250000E+02 -5.225000E+03  2.019937E-06 -1.373257E-09 -7.621433E-12 -2.019936E-06  1.145767E-08 -7.798817E-12 -4.328073E-14 -1.145767E-08  0.000000E+00  0.000000E+00  0.000000E+00  0.000000E+00  0.000000E+00  0.000000E+00  0.000000E+00  0.000000E+00  1.798579E+00 -1.314728E-03 -7.290900E-06 -1.798578E+00                                                                                                                                                                                                                                                                                                                                                                                                                                                                                              
  1.435000E+03  1.250000E+02 -5.225000E+03  2.023735E-06 -7.498551E-10 -1.283604E-11 -2.023735E-06  1.148373E-08 -4.259059E-12 -7.292086E-14 -1.148373E-08  0.000000E+00  0.000000E+00  0.000000E+00  0.000000E+00  0.000000E+00  0.000000E+00  0.000000E+00  0.000000E+00  1.807001E+00 -7.183659E-04 -1.229719E-05 -1.807001E+00                                                                                                                                                                                                                                                                                                                                                                                                                                                                                              
  1.250000E+02  1.250000E+02 -4.975000E+03  2.049229E-06  6.787795E-10  3.195924E-12 -2.049229E-06  1.116473E-08  3.715948E-12  1.750270E-14 -1.116472E-08  0.000000E+00  0.000000E+00  0.000000E+00  0.000000E+00  0.000000E+00  0.000000E+00  0.000000E+00  0.000000E+00  1.470496E+00  5.608885E-04  2.640853E-06 -1.470496E+00                                                                                                                                                                                                                                                                                                                                                                                                                                                                                              
  3.750000E+02  1.250000E+02 -4.975000E+03  2.044485E-06  1.165768E-09  1.996720E-12 -2.044485E-06  1.113172E-08  6.380140E-12  1.092698E-14 -1.113172E-08  0.000000E+00  0.000000E+00  0.000000E+00  0.000000E+00  0.000000E+00  0.000000E+00  0.000000E+00  0.000000E+00  1.459838E+00  9.617740E-04  1.643687E-06 -1.459838E+00                                                                                                                                                                                                                                                                                                                                                                                                                                                                                              
  6.250000E+02  1.250000E+02 -4.975000E+03  2.041019E-06  3.429909E-10  1.605858E-13 -2.041019E-06  1.110712E-08  1.876629E-12  8.782673E-16 -1.110712E-08  0.000000E+00  0.000000E+00  0.000000E+00  0.000000E+00  0.000000E+00  0.000000E+00  0.000000E+00  0.000000E+00  1.451788E+00  2.826806E-04  1.317854E-07 -1.451788E+00                                                                                                                                                                                                                                                                                                                                                                                                                                                                                              
  7.600000E+02  1.250000E+02 -4.975000E+03  2.041030E-06 -3.566843E-10 -4.932445E-13 -2.041030E-06  1.110769E-08 -1.950854E-12 -2.697774E-15 -1.110769E-08  0.000000E+00  0.000000E+00  0.000000E+00  0.000000E+00  0.000000E+00  0.000000E+00  0.000000E+00  0.000000E+00  1.452263E+00 -2.928158E-04 -4.048986E-07 -1.452263E+00                                                                                                                                                                                                                                                                                                                                                                                                                                                                                              
  7.800000E+02  1.250000E+02 -4.975000E+03  2.041136E-06 -4.940059E-10 -5.913671E-13 -2.041136E-06  1.110848E-08 -2.702017E-12 -3.234522E-15 -1.110848E-08  0.000000E+00  0.000000E+00  0.000000E+00  0.000000E+00  0.000000E+00  0.000000E+00  0.000000E+00  0.000000E+00  1.452538E+00 -4.056209E-04 -4.855020E-07 -1.452538E+00                                                                                                                                                                                                                                                                                                                                                                                                                                                                                              
  8.000000E+02  1.250000E+02 -4.975000E+03  2.041413E-06 -6.262873E-10 -6.906223E-13 -2.041413E-06  1.111041E-08 -3.425981E-12 -3.777579E-15 -1.111041E-08  0.000000E+00  0.000000E+00  0.000000E+00  0.000000E+00  0.000000E+00  0.000000E+00  0.000000E+00  0.000000E+00  1.453142E+00 -5.148254E-04 -5.671214E-07 -1.453142E+00                                                                                                                                                                                                                                                                                                                                                                                                                                                                                              
  9.350000E+02  1.250000E+02 -4.975000E+03  2.043796E-06 -8.733876E-10 -1.355960E-12 -2.043796E-06  1.112690E-08 -4.779415E-12 -7.419631E-15 -1.112690E-08  0.000000E+00  0.000000E+00  0.000000E+00  0.000000E+00  0.000000E+00  0.000000E+00  0.000000E+00  0.000000E+00  1.458226E+00 -7.197016E-04 -1.115597E-06 -1.458226E+00                                                                                                                                                                                                                                                                                                                                                                                                                                                                                              
  1.185000E+03  1.250000E+02 -4.975000E+03  2.046105E-06 -1.368059E-09 -4.359916E-12 -2.046105E-06  1.114436E-08 -7.490870E-12 -2.386924E-14 -1.114436E-08  0.000000E+00  0.000000E+00  0.000000E+00  0.000000E+00  0.000000E+00  0.000000E+00  0.000000E+00  0.000000E+00  1.464668E+00 -1.131546E-03 -3.596506E-06 -1.464668E+00                                                                                                                                                                                                                                                                                                                                                                                                                                                                                              
  1.435000E+03  1.250000E+02 -4.975000E+03  2.051783E-06 -8.396394E-10 -1.051460E-11 -2.051783E-06  1.118371E-08 -4.598710E-12 -5.761478E-14 -1.118371E-08  0.000000E+00  0.000000E+00  0.000000E+00  0.000000E+00  0.000000E+00  0.000000E+00  0.000000E+00  0.000000E+00  1.477389E+00 -6.956594E-04 -8.712003E-06 -1.477388E+00                                                                                                                                                                                                                                                                                                                                                                                                                                                                                              
  1.250000E+02  1.250000E+02 -4.725000E+03  2.077227E-06 -1.681745E-09 -3.179554E-12 -2.077226E-06  1.083453E-08 -8.753135E-12 -1.655523E-14 -1.083452E-08  0.000000E+00  0.000000E+00  0.000000E+00  0.000000E+00  0.000000E+00  0.000000E+00  0.000000E+00  0.000000E+00  1.048455E+00 -1.020061E-03 -1.941410E-06 -1.048455E+00                                                                                                                                                                                                                                                                                                                                                                                                                                                                                              
  3.750000E+02  1.250000E+02 -4.725000E+03  2.073365E-06 -2.960995E-09 -6.925392E-13 -2.073362E-06  1.080783E-08 -1.540682E-11 -3.603063E-15 -1.080782E-08  0.000000E+00  0.000000E+00  0.000000E+00  0.000000E+00  0.000000E+00  0.000000E+00  0.000000E+00  0.000000E+00  1.042117E+00 -1.792192E-03 -4.200550E-07 -1.042115E+00                                                                                                                                                                                                                                                                                                                                                                                                                                                                                              
  6.250000E+02  1.250000E+02 -4.725000E+03  2.070600E-06 -7.506022E-10  3.931193E-12 -2.070600E-06  1.078849E-08 -3.904816E-12  2.044104E-14 -1.078849E-08  0.000000E+00  0.000000E+00  0.000000E+00  0.000000E+00  0.000000E+00  0.000000E+00  0.000000E+00  0.000000E+00  1.037551E+00 -4.530493E-04  2.372794E-06 -1.037551E+00                                                                                                                                                                                                                                                                                                                                                                                                                                                                                              
  7.600000E+02  1.250000E+02 -4.725000E+03  2.070765E-06  1.230519E-09  5.924272E-12 -2.070764E-06  1.078968E-08  6.398570E-12  3.080571E-14 -1.078968E-08  0.000000E+00  0.000000E+00  0.000000E+00  0.000000E+00  0.000000E+00  0.000000E+00  0.000000E+00  0.000000E+00  1.037806E+00  7.428619E-04  3.576995E-06 -1.037806E+00                                                                                                                                                                                                                                                                                                                                                                                                                                                                                              
  7.800000E+02  1.250000E+02 -4.725000E+03  2.070858E-06  1.575097E-09  6.222175E-12 -2.070857E-06  1.079034E-08  8.190589E-12  3.235542E-14 -1.079034E-08  0.000000E+00  0.000000E+00  0.000000E+00  0.000000E+00  0.000000E+00  0.000000E+00  0.000000E+00  0.000000E+00  1.037960E+00  9.511114E-04  3.757500E-06 -1.037959E+00                                                                                                                                                                                                                                                                                                                                                                                                                                                                                              
  8.000000E+02  1.250000E+02 -4.725000E+03  2.071056E-06  1.904871E-09  6.524240E-12 -2.071055E-06  1.079174E-08  9.906645E-12  3.392757E-14 -1.079173E-08  0.000000E+00  0.000000E+00  0.000000E+00  0.000000E+00  0.000000E+00  0.000000E+00  0.000000E+00  0.000000E+00  1.038294E+00  1.150550E-03  3.941309E-06 -1.038293E+00                                                                                                                                                                                                                                                                                                                                                                                                                                                                                              
  9.350000E+02  1.250000E+02 -4.725000E+03  2.072757E-06  2.583126E-09  8.560057E-12 -2.072755E-06  1.080369E-08  1.343867E-11  4.452991E-14 -1.080368E-08  0.000000E+00  0.000000E+00  0.000000E+00  0.000000E+00  0.000000E+00  0.000000E+00  0.000000E+00  0.000000E+00  1.041156E+00  1.563293E-03  5.186714E-06 -1.041154E+00                                                                                                                                                                                                                                                                                                                                                                                                                                                                                              
  1.185000E+03  1.250000E+02 -4.725000E+03  2.075126E-06  3.580202E-09  1.646272E-11 -2.075123E-06  1.082010E-08  1.863678E-11  8.568200E-14 -1.082009E-08  0.000000E+00  0.000000E+00  0.000000E+00  0.000000E+00  0.000000E+00  0.000000E+00  0.000000E+00  0.000000E+00  1.044920E+00  2.174414E-03  1.001645E-05 -1.044918E+00                                                                                                                                                                                                                                                                                                                                                                                                                                                                                              