Title="TOUGHREACT V3.30-OMP flowvector.tec: Liq & Gas Fluxes (kg/s/m^2), Pore Velocities (m/s), & Heat Fluxes (J/s/m2)"                                                                                                                                                                                                                                                                                                                                                                                                                                                                                                                                                                                                                                                                                                         
Variables= "X(m)"     "Y(m)"      "Z(m)"     "FluxLiq"   "FluxLiq_X"   "FluxLiq_Y"   "FluxLiq_Z"   "PorVelLiq"  "PorVelLiqX"  "PorVelLiqY"  "PorVelLiqZ"     "FluxGas"   "FluxGas_X"   "FluxGas_Y"   "FluxGas_Z"   "PorVelGas"  "PorVelGasX"  "PorVelGasY"  "PorVelGasZ"    "HeatFlux"  "HeatFlux_X"  "HeatFlux_Y"  "HeatFlux_Z"                                                                                                                                                                                                                                                                                                                                                                                                                                                                                                
Zone T= "2.66000000E+10 sec" I=     9 J=    10 K=    23 F=Point
  1.250000E+02  1.250000E+02 -5.425000E+03  1.058502E-06  0.000000E+00  0.000000E+00 -1.058502E-06  6.172285E-09  0.000000E+00  0.000000E+00 -6.172285E-09  0.000000E+00  0.000000E+00  0.000000E+00  0.000000E+00  0.000000E+00  0.000000E+00  0.000000E+00  0.000000E+00  1.081558E+00  0.000000E+00  0.000000E+00 -1.081558E+00                                                                                                                                                                                                                                                                                                                                                                                                                                                                                              
  3.750000E+02  1.250000E+02 -5.425000E+03  1.057035E-06  0.000000E+00  0.000000E+00 -1.057035E-06  6.163682E-09  0.000000E+00  0.000000E+00 -6.163682E-09  0.000000E+00  0.000000E+00  0.000000E+00  0.000000E+00  0.000000E+00  0.000000E+00  0.000000E+00  0.000000E+00  1.079977E+00  0.000000E+00  0.000000E+00 -1.079977E+00                                                                                                                                                                                                                                                                                                                                                                                                                                                                                              
  6.250000E+02  1.250000E+02 -5.425000E+03  1.055971E-06  0.000000E+00  0.000000E+00 -1.055971E-06  6.157367E-09  0.000000E+00  0.000000E+00 -6.157367E-09  0.000000E+00  0.000000E+00  0.000000E+00  0.000000E+00  0.000000E+00  0.000000E+00  0.000000E+00  0.000000E+00  1.078740E+00  0.000000E+00  0.000000E+00 -1.078740E+00                                                                                                                                                                                                                                                                                                                                                                                                                                                                                              
  7.600000E+02  1.250000E+02 -5.425000E+03  1.056237E-06  0.000000E+00  0.000000E+00 -1.056237E-06  6.158914E-09  0.000000E+00  0.000000E+00 -6.158914E-09  0.000000E+00  0.000000E+00  0.000000E+00  0.000000E+00  0.000000E+00  0.000000E+00  0.000000E+00  0.000000E+00  1.079014E+00  0.000000E+00  0.000000E+00 -1.079014E+00                                                                                                                                                                                                                                                                                                                                                                                                                                                                                              
  7.800000E+02  1.250000E+02 -5.425000E+03  1.056288E-06  0.000000E+00  0.000000E+00 -1.056288E-06  6.159219E-09  0.000000E+00  0.000000E+00 -6.159219E-09  0.000000E+00  0.000000E+00  0.000000E+00  0.000000E+00  0.000000E+00  0.000000E+00  0.000000E+00  0.000000E+00  1.079073E+00  0.000000E+00  0.000000E+00 -1.079073E+00                                                                                                                                                                                                                                                                                                                                                                                                                                                                                              
  8.000000E+02  1.250000E+02 -5.425000E+03  1.056353E-06  0.000000E+00  0.000000E+00 -1.056353E-06  6.159609E-09  0.000000E+00  0.000000E+00 -6.159609E-09  0.000000E+00  0.000000E+00  0.000000E+00  0.000000E+00  0.000000E+00  0.000000E+00  0.000000E+00  0.000000E+00  1.079156E+00  0.000000E+00  0.000000E+00 -1.079156E+00                                                                                                                                                                                                                                                                                                                                                                                                                                                                                              
  9.350000E+02  1.250000E+02 -5.425000E+03  1.056864E-06  0.000000E+00  0.000000E+00 -1.056864E-06  6.162708E-09  0.000000E+00  0.000000E+00 -6.162708E-09  0.000000E+00  0.000000E+00  0.000000E+00  0.000000E+00  0.000000E+00  0.000000E+00  0.000000E+00  0.000000E+00  1.079825E+00  0.000000E+00  0.000000E+00 -1.079825E+00                                                                                                                                                                                                                                                                                                                                                                                                                                                                                              
  1.185000E+03  1.250000E+02 -5.425000E+03  1.058732E-06  0.000000E+00  0.000000E+00 -1.058732E-06  6.173600E-09  0.000000E+00  0.000000E+00 -6.173600E-09  0.000000E+00  0.000000E+00  0.000000E+00  0.000000E+00  0.000000E+00  0.000000E+00  0.000000E+00  0.000000E+00  1.081766E+00  0.000000E+00  0.000000E+00 -1.081766E+00                                                                                                                                                                                                                                                                                                                                                                                                                                                                                              
  1.435000E+03  1.250000E+02 -5.425000E+03  1.060910E-06  0.000000E+00  0.000000E+00 -1.060910E-06  6.186311E-09  0.000000E+00  0.000000E+00 -6.186311E-09  0.000000E+00  0.000000E+00  0.000000E+00  0.000000E+00  0.000000E+00  0.000000E+00  0.000000E+00  0.000000E+00  1.084037E+00  0.000000E+00  0.000000E+00 -1.084037E+00                                                                                                                                                                                                                                                                                                                                                                                                                                                                                              
  1.250000E+02  1.250000E+02 -5.225000E+03  2.124030E-06  1.161882E-09 -4.029056E-12 -2.124030E-06  1.225880E-08  6.719363E-12 -2.330097E-14 -1.225880E-08  0.000000E+00  0.000000E+00  0.000000E+00  0.000000E+00  0.000000E+00  0.000000E+00  0.000000E+00  0.000000E+00  2.100520E+00  1.187190E-03 -4.116814E-06 -2.100520E+00                                                                                                                                                                                                                                                                                                                                                                                                                                                                                              
  3.750000E+02  1.250000E+02 -5.225000E+03  2.119708E-06  1.979498E-09 -9.731557E-12 -2.119707E-06  1.223258E-08  1.144764E-11 -5.627880E-14 -1.223257E-08  0.000000E+00  0.000000E+00  0.000000E+00  0.000000E+00  0.000000E+00  0.000000E+00  0.000000E+00  0.000000E+00  2.094516E+00  2.022552E-03 -9.942771E-06 -2.094515E+00                                                                                                                                                                                                                                                                                                                                                                                                                                                                                              
  6.250000E+02  1.250000E+02 -5.225000E+03  2.116820E-06  4.219479E-10 -1.902365E-11 -2.116820E-06  1.221448E-08  2.440168E-12 -1.100118E-13 -1.221448E-08  0.000000E+00  0.000000E+00  0.000000E+00  0.000000E+00  0.000000E+00  0.000000E+00  0.000000E+00  0.000000E+00  2.089875E+00  4.311617E-04 -1.943382E-05 -2.089875E+00                                                                                                                                                                                                                                                                                                                                                                                                                                                                                              
  7.600000E+02  1.250000E+02 -5.225000E+03  2.117293E-06 -8.916345E-10 -2.564313E-11 -2.117293E-06  1.221732E-08 -5.156235E-12 -1.482917E-13 -1.221732E-08  0.000000E+00  0.000000E+00  0.000000E+00  0.000000E+00  0.000000E+00  0.000000E+00  0.000000E+00  0.000000E+00  2.090494E+00 -9.108649E-04 -2.619609E-05 -2.090493E+00                                                                                                                                                                                                                                                                                                                                                                                                                                                                                              
  7.800000E+02  1.250000E+02 -5.225000E+03  2.117404E-06 -1.091159E-09 -2.664778E-11 -2.117403E-06  1.221802E-08 -6.310078E-12 -1.541017E-13 -1.221801E-08  0.000000E+00  0.000000E+00  0.000000E+00  0.000000E+00  0.000000E+00  0.000000E+00  0.000000E+00  0.000000E+00  2.090674E+00 -1.114705E-03 -2.722257E-05 -2.090674E+00                                                                                                                                                                                                                                                                                                                                                                                                                                                                                              
  8.000000E+02  1.250000E+02 -5.225000E+03  2.117567E-06 -1.286091E-09 -2.767631E-11 -2.117566E-06  1.221908E-08 -7.437446E-12 -1.600503E-13 -1.221908E-08  0.000000E+00  0.000000E+00  0.000000E+00  0.000000E+00  0.000000E+00  0.000000E+00  0.000000E+00  0.000000E+00  2.090986E+00 -1.313949E-03 -2.827374E-05 -2.090986E+00                                                                                                                                                                                                                                                                                                                                                                                                                                                                                              
  9.350000E+02  1.250000E+02 -5.225000E+03  2.118894E-06 -2.189035E-09 -3.478516E-11 -2.118893E-06  1.222782E-08 -1.265947E-11 -2.011682E-13 -1.222781E-08  0.000000E+00  0.000000E+00  0.000000E+00  0.000000E+00  0.000000E+00  0.000000E+00  0.000000E+00  0.000000E+00  2.093559E+00 -2.236639E-03 -3.554085E-05 -2.093558E+00                                                                                                                                                                                                                                                                                                                                                                                                                                                                                              
  1.185000E+03  1.250000E+02 -5.225000E+03  2.123077E-06 -3.243772E-09 -5.275913E-11 -2.123074E-06  1.225286E-08 -1.875932E-11 -3.051158E-13 -1.225285E-08  0.000000E+00  0.000000E+00  0.000000E+00  0.000000E+00  0.000000E+00  0.000000E+00  0.000000E+00  0.000000E+00  2.098964E+00 -3.314418E-03 -5.390690E-05 -2.098961E+00                                                                                                                                                                                                                                                                                                                                                                                                                                                                                              
  1.435000E+03  1.250000E+02 -5.225000E+03  2.129274E-06 -1.745635E-09 -7.111969E-11 -2.129273E-06  1.228986E-08 -1.009535E-11 -4.113012E-13 -1.228986E-08  0.000000E+00  0.000000E+00  0.000000E+00  0.000000E+00  0.000000E+00  0.000000E+00  0.000000E+00  0.000000E+00  2.106881E+00 -1.783687E-03 -7.266995E-05 -2.106880E+00                                                                                                                                                                                                                                                                                                                                                                                                                                                                                              
  1.250000E+02  1.250000E+02 -4.975000E+03  2.147891E-06  3.245710E-09  4.675150E-12 -2.147889E-06  1.207436E-08  1.837356E-11  2.647130E-14 -1.207435E-08  0.000000E+00  0.000000E+00  0.000000E+00  0.000000E+00  0.000000E+00  0.000000E+00  0.000000E+00  0.000000E+00  1.884585E+00  3.103866E-03  4.470836E-06 -1.884583E+00                                                                                                                                                                                                                                                                                                                                                                                                                                                                                              
  3.750000E+02  1.250000E+02 -4.975000E+03  2.138036E-06  5.166363E-09 -1.041778E-11 -2.138029E-06  1.201146E-08  2.924155E-11 -5.896174E-14 -1.201143E-08  0.000000E+00  0.000000E+00  0.000000E+00  0.000000E+00  0.000000E+00  0.000000E+00  0.000000E+00  0.000000E+00  1.866280E+00  4.937521E-03 -9.945869E-06 -1.866273E+00                                                                                                                                                                                                                                                                                                                                                                                                                                                                                              
  6.250000E+02  1.250000E+02 -4.975000E+03  2.133451E-06  1.281081E-09 -2.840889E-11 -2.133451E-06  1.197915E-08  7.249653E-12 -1.607188E-13 -1.197915E-08  0.000000E+00  0.000000E+00  0.000000E+00  0.000000E+00  0.000000E+00  0.000000E+00  0.000000E+00  0.000000E+00  1.854423E+00  1.223967E-03 -2.707765E-05 -1.854423E+00                                                                                                                                                                                                                                                                                                                                                                                                                                                                                              
  7.600000E+02  1.250000E+02 -4.975000E+03  2.133389E-06 -1.518638E-09 -4.028829E-11 -2.133389E-06  1.197939E-08 -8.591737E-12 -2.279330E-13 -1.197939E-08  0.000000E+00  0.000000E+00  0.000000E+00  0.000000E+00  0.000000E+00  0.000000E+00  0.000000E+00  0.000000E+00  1.855053E+00 -1.447736E-03 -3.840600E-05 -1.855052E+00                                                                                                                                                                                                                                                                                                                                                                                                                                                                                              
  7.800000E+02  1.250000E+02 -4.975000E+03  2.133492E-06 -1.997886E-09 -4.209766E-11 -2.133491E-06  1.198021E-08 -1.130338E-11 -2.381736E-13 -1.198020E-08  0.000000E+00  0.000000E+00  0.000000E+00  0.000000E+00  0.000000E+00  0.000000E+00  0.000000E+00  0.000000E+00  1.855427E+00 -1.904803E-03 -4.013343E-05 -1.855426E+00                                                                                                                                                                                                                                                                                                                                                                                                                                                                                              
  8.000000E+02  1.250000E+02 -4.975000E+03  2.133776E-06 -2.468369E-09 -4.396242E-11 -2.133775E-06  1.198231E-08 -1.396658E-11 -2.487323E-13 -1.198230E-08  0.000000E+00  0.000000E+00  0.000000E+00  0.000000E+00  0.000000E+00  0.000000E+00  0.000000E+00  0.000000E+00  1.856251E+00 -2.354934E-03 -4.191681E-05 -1.856250E+00                                                                                                                                                                                                                                                                                                                                                                                                                                                                                              
  9.350000E+02  1.250000E+02 -4.975000E+03  2.136251E-06 -4.551473E-09 -5.689315E-11 -2.136246E-06  1.200038E-08 -2.576043E-11 -3.219845E-13 -1.200036E-08  0.000000E+00  0.000000E+00  0.000000E+00  0.000000E+00  0.000000E+00  0.000000E+00  0.000000E+00  0.000000E+00  1.863245E+00 -4.348268E-03 -5.430610E-05 -1.863240E+00                                                                                                                                                                                                                                                                                                                                                                                                                                                                                              
  1.185000E+03  1.250000E+02 -4.975000E+03  2.140680E-06 -8.118770E-09 -9.473226E-11 -2.140665E-06  1.203063E-08 -4.596510E-11 -5.363009E-13 -1.203055E-08  0.000000E+00  0.000000E+00  0.000000E+00  0.000000E+00  0.000000E+00  0.000000E+00  0.000000E+00  0.000000E+00  1.873798E+00 -7.767447E-03 -9.053657E-05 -1.873782E+00                                                                                                                                                                                                                                                                                                                                                                                                                                                                                              
  1.435000E+03  1.250000E+02 -4.975000E+03  2.154764E-06 -4.916846E-09 -1.449780E-10 -2.154758E-06  1.211826E-08 -2.784126E-11 -8.211216E-13 -1.211823E-08  0.000000E+00  0.000000E+00  0.000000E+00  0.000000E+00  0.000000E+00  0.000000E+00  0.000000E+00  0.000000E+00  1.897403E+00 -4.707358E-03 -1.388036E-04 -1.897397E+00                                                                                                                                                                                                                                                                                                                                                                                                                                                                                              
  1.250000E+02  1.250000E+02 -4.725000E+03  2.199375E-06  3.580820E-09  2.883062E-11 -2.199372E-06  1.180796E-08  1.940442E-11  1.563779E-13 -1.180794E-08  0.000000E+00  0.000000E+00  0.000000E+00  0.000000E+00  0.000000E+00  0.000000E+00  0.000000E+00  0.000000E+00  1.321033E+00  2.863769E-03  2.305736E-05 -1.321030E+00                                                                                                                                                                                                                                                                                                                                                                                                                                                                                              
  3.750000E+02  1.250000E+02 -4.725000E+03  2.177287E-06  3.275857E-09 -1.892251E-12 -2.177285E-06  1.167577E-08  1.775435E-11 -1.024520E-14 -1.167576E-08  0.000000E+00  0.000000E+00  0.000000E+00  0.000000E+00  0.000000E+00  0.000000E+00  0.000000E+00  0.000000E+00  1.292577E+00  2.624005E-03 -1.498734E-06 -1.292575E+00                                                                                                                                                                                                                                                                                                                                                                                                                                                                                              
  6.250000E+02  1.250000E+02 -4.725000E+03  2.176060E-06  3.452423E-10 -1.094457E-11 -2.176060E-06  1.165931E-08  1.865737E-12 -5.917651E-14 -1.165931E-08  0.000000E+00  0.000000E+00  0.000000E+00  0.000000E+00  0.000000E+00  0.000000E+00  0.000000E+00  0.000000E+00  1.284671E+00  2.714321E-04 -8.604790E-06 -1.284671E+00                                                                                                                                                                                                                                                                                                                                                                                                                                                                                              
  7.600000E+02  1.250000E+02 -4.725000E+03  2.175947E-06  1.407167E-09 -1.720989E-11 -2.175947E-06  1.165938E-08  7.609189E-12 -9.306282E-14 -1.165938E-08  0.000000E+00  0.000000E+00  0.000000E+00  0.000000E+00  0.000000E+00  0.000000E+00  0.000000E+00  0.000000E+00  1.285019E+00  1.106676E-03 -1.353872E-05 -1.285018E+00                                                                                                                                                                                                                                                                                                                                                                                                                                                                                              
  7.800000E+02  1.250000E+02 -4.725000E+03  2.175977E-06  1.614668E-09 -1.820127E-11 -2.175976E-06  1.165988E-08  8.731892E-12 -9.842842E-14 -1.165987E-08  0.000000E+00  0.000000E+00  0.000000E+00  0.000000E+00  0.000000E+00  0.000000E+00  0.000000E+00  0.000000E+00  1.285266E+00  1.270387E-03 -1.432235E-05 -1.285266E+00                                                                                                                                                                                                                                                                                                                                                                                                                                                                                              
  8.000000E+02  1.250000E+02 -4.725000E+03  2.176087E-06  1.791892E-09 -1.926623E-11 -2.176086E-06  1.166118E-08  9.693005E-12 -1.041977E-13 -1.166117E-08  0.000000E+00  0.000000E+00  0.000000E+00  0.000000E+00  0.000000E+00  0.000000E+00  0.000000E+00  0.000000E+00  1.285831E+00  1.410385E-03 -1.516844E-05 -1.285830E+00                                                                                                                                                                                                                                                                                                                                                                                                                                                                                              
  9.350000E+02  1.250000E+02 -4.725000E+03  2.177049E-06  1.380002E-10 -2.705566E-11 -2.177049E-06  1.167234E-08  7.424876E-13 -1.464458E-13 -1.167234E-08  0.000000E+00  0.000000E+00  0.000000E+00  0.000000E+00  0.000000E+00  0.000000E+00  0.000000E+00  0.000000E+00  1.290646E+00  1.018365E-04 -2.139644E-05 -1.290646E+00                                                                                                                                                                                                                                                                                                                                                                                                                                                                                              
  1.185000E+03  1.250000E+02 -4.725000E+03  2.177194E-06 -7.796161E-09 -5.792811E-11 -2.177180E-06  1.168161E-08 -4.228461E-11 -3.139205E-13 -1.168154E-08  0.000000E+00  0.000000E+00  0.000000E+00  0.000000E+00  0.000000E+00  0.000000E+00  0.000000E+00  0.000000E+00  1.297167E+00 -6.268651E-03 -4.610393E-05 -1.297152E+00                                                                                                                                                                                                                                                                                                                                                                                                                                                                                              