Title="TOUGHREACT V3.30-OMP flowvector.tec: Liq & Gas Fluxes (kg/s/m^2), Pore Velocities (m/s), & Heat Fluxes (J/s/m2)"                                                                                                                                                                                                                                                                                                                                                                                                                                                                                                                                                                                                                                                                                                         
Variables= "X(m)"     "Y(m)"      "Z(m)"     "FluxLiq"   "FluxLiq_X"   "FluxLiq_Y"   "FluxLiq_Z"   "PorVelLiq"  "PorVelLiqX"  "PorVelLiqY"  "PorVelLiqZ"     "FluxGas"   "FluxGas_X"   "FluxGas_Y"   "FluxGas_Z"   "PorVelGas"  "PorVelGasX"  "PorVelGasY"  "PorVelGasZ"    "HeatFlux"  "HeatFlux_X"  "HeatFlux_Y"  "HeatFlux_Z"                                                                                                                                                                                                                                                                                                                                                                                                                                                                                                
Zone T= "5.33000000E+10 sec" I=     9 J=    10 K=    23 F=Point
  1.250000E+02  1.250000E+02 -5.425000E+03  1.029054E-06  0.000000E+00  0.000000E+00 -1.029054E-06  5.973765E-09  0.000000E+00  0.000000E+00 -5.973765E-09  0.000000E+00  0.000000E+00  0.000000E+00  0.000000E+00  0.000000E+00  0.000000E+00  0.000000E+00  0.000000E+00  1.018436E+00  0.000000E+00  0.000000E+00 -1.018436E+00                                                                                                                                                                                                                                                                                                                                                                                                                                                                                              
  3.750000E+02  1.250000E+02 -5.425000E+03  1.027900E-06  0.000000E+00  0.000000E+00 -1.027900E-06  5.966456E-09  0.000000E+00  0.000000E+00 -5.966456E-09  0.000000E+00  0.000000E+00  0.000000E+00  0.000000E+00  0.000000E+00  0.000000E+00  0.000000E+00  0.000000E+00  1.016527E+00  0.000000E+00  0.000000E+00 -1.016527E+00                                                                                                                                                                                                                                                                                                                                                                                                                                                                                              
  6.250000E+02  1.250000E+02 -5.425000E+03  1.026950E-06  0.000000E+00  0.000000E+00 -1.026950E-06  5.960359E-09  0.000000E+00  0.000000E+00 -5.960359E-09  0.000000E+00  0.000000E+00  0.000000E+00  0.000000E+00  0.000000E+00  0.000000E+00  0.000000E+00  0.000000E+00  1.014849E+00  0.000000E+00  0.000000E+00 -1.014849E+00                                                                                                                                                                                                                                                                                                                                                                                                                                                                                              
  7.600000E+02  1.250000E+02 -5.425000E+03  1.027129E-06  0.000000E+00  0.000000E+00 -1.027129E-06  5.961439E-09  0.000000E+00  0.000000E+00 -5.961439E-09  0.000000E+00  0.000000E+00  0.000000E+00  0.000000E+00  0.000000E+00  0.000000E+00  0.000000E+00  0.000000E+00  1.015084E+00  0.000000E+00  0.000000E+00 -1.015084E+00                                                                                                                                                                                                                                                                                                                                                                                                                                                                                              
  7.800000E+02  1.250000E+02 -5.425000E+03  1.027169E-06  0.000000E+00  0.000000E+00 -1.027169E-06  5.961697E-09  0.000000E+00  0.000000E+00 -5.961697E-09  0.000000E+00  0.000000E+00  0.000000E+00  0.000000E+00  0.000000E+00  0.000000E+00  0.000000E+00  0.000000E+00  1.015153E+00  0.000000E+00  0.000000E+00 -1.015153E+00                                                                                                                                                                                                                                                                                                                                                                                                                                                                                              
  8.000000E+02  1.250000E+02 -5.425000E+03  1.027229E-06  0.000000E+00  0.000000E+00 -1.027229E-06  5.962094E-09  0.000000E+00  0.000000E+00 -5.962094E-09  0.000000E+00  0.000000E+00  0.000000E+00  0.000000E+00  0.000000E+00  0.000000E+00  0.000000E+00  0.000000E+00  1.015274E+00  0.000000E+00  0.000000E+00 -1.015274E+00                                                                                                                                                                                                                                                                                                                                                                                                                                                                                              
  9.350000E+02  1.250000E+02 -5.425000E+03  1.027708E-06  0.000000E+00  0.000000E+00 -1.027708E-06  5.965282E-09  0.000000E+00  0.000000E+00 -5.965282E-09  0.000000E+00  0.000000E+00  0.000000E+00  0.000000E+00  0.000000E+00  0.000000E+00  0.000000E+00  0.000000E+00  1.016259E+00  0.000000E+00  0.000000E+00 -1.016259E+00                                                                                                                                                                                                                                                                                                                                                                                                                                                                                              
  1.185000E+03  1.250000E+02 -5.425000E+03  1.028843E-06  0.000000E+00  0.000000E+00 -1.028843E-06  5.972289E-09  0.000000E+00  0.000000E+00 -5.972289E-09  0.000000E+00  0.000000E+00  0.000000E+00  0.000000E+00  0.000000E+00  0.000000E+00  0.000000E+00  0.000000E+00  1.017914E+00  0.000000E+00  0.000000E+00 -1.017914E+00                                                                                                                                                                                                                                                                                                                                                                                                                                                                                              
  1.435000E+03  1.250000E+02 -5.425000E+03  1.030240E-06  0.000000E+00  0.000000E+00 -1.030240E-06  5.981043E-09  0.000000E+00  0.000000E+00 -5.981043E-09  0.000000E+00  0.000000E+00  0.000000E+00  0.000000E+00  0.000000E+00  0.000000E+00  0.000000E+00  0.000000E+00  1.020117E+00  0.000000E+00  0.000000E+00 -1.020117E+00                                                                                                                                                                                                                                                                                                                                                                                                                                                                                              
  1.250000E+02  1.250000E+02 -5.225000E+03  2.067720E-06  6.952888E-10  1.294198E-12 -2.067719E-06  1.182512E-08  3.984132E-12  7.416786E-15 -1.182512E-08  0.000000E+00  0.000000E+00  0.000000E+00  0.000000E+00  0.000000E+00  0.000000E+00  0.000000E+00  0.000000E+00  1.937568E+00  6.881146E-04  1.280845E-06 -1.937568E+00                                                                                                                                                                                                                                                                                                                                                                                                                                                                                              
  3.750000E+02  1.250000E+02 -5.225000E+03  2.064715E-06  1.232553E-09 -1.229560E-13 -2.064715E-06  1.180468E-08  7.062128E-12 -7.044896E-16 -1.180468E-08  0.000000E+00  0.000000E+00  0.000000E+00  0.000000E+00  0.000000E+00  0.000000E+00  0.000000E+00  0.000000E+00  1.931045E+00  1.219434E-03 -1.215954E-07 -1.931045E+00                                                                                                                                                                                                                                                                                                                                                                                                                                                                                              
  6.250000E+02  1.250000E+02 -5.225000E+03  2.062327E-06  3.035191E-10 -2.823579E-12 -2.062327E-06  1.178813E-08  1.738986E-12 -1.617477E-14 -1.178813E-08  0.000000E+00  0.000000E+00  0.000000E+00  0.000000E+00  0.000000E+00  0.000000E+00  0.000000E+00  0.000000E+00  1.925587E+00  3.003157E-04 -2.790309E-06 -1.925587E+00                                                                                                                                                                                                                                                                                                                                                                                                                                                                                              
  7.600000E+02  1.250000E+02 -5.225000E+03  2.062637E-06 -5.317865E-10 -4.370936E-12 -2.062637E-06  1.179015E-08 -3.046361E-12 -2.503913E-14 -1.179015E-08  0.000000E+00  0.000000E+00  0.000000E+00  0.000000E+00  0.000000E+00  0.000000E+00  0.000000E+00  0.000000E+00  1.926164E+00 -5.255586E-04 -4.319682E-06 -1.926164E+00                                                                                                                                                                                                                                                                                                                                                                                                                                                                                              
  7.800000E+02  1.250000E+02 -5.225000E+03  2.062729E-06 -6.592100E-10 -4.606087E-12 -2.062728E-06  1.179079E-08 -3.776358E-12 -2.638641E-14 -1.179079E-08  0.000000E+00  0.000000E+00  0.000000E+00  0.000000E+00  0.000000E+00  0.000000E+00  0.000000E+00  0.000000E+00  1.926371E+00 -6.515199E-04 -4.552206E-06 -1.926371E+00                                                                                                                                                                                                                                                                                                                                                                                                                                                                                              
  8.000000E+02  1.250000E+02 -5.225000E+03  2.062887E-06 -7.816024E-10 -4.847487E-12 -2.062887E-06  1.179192E-08 -4.477704E-12 -2.776977E-14 -1.179192E-08  0.000000E+00  0.000000E+00  0.000000E+00  0.000000E+00  0.000000E+00  0.000000E+00  0.000000E+00  0.000000E+00  1.926771E+00 -7.727153E-04 -4.791077E-06 -1.926771E+00                                                                                                                                                                                                                                                                                                                                                                                                                                                                                              
  9.350000E+02  1.250000E+02 -5.225000E+03  2.064175E-06 -1.174279E-09 -6.518904E-12 -2.064174E-06  1.180118E-08 -6.728140E-12 -3.734999E-14 -1.180118E-08  0.000000E+00  0.000000E+00  0.000000E+00  0.000000E+00  0.000000E+00  0.000000E+00  0.000000E+00  0.000000E+00  1.930045E+00 -1.161586E-03 -6.446289E-06 -1.930045E+00                                                                                                                                                                                                                                                                                                                                                                                                                                                                                              
  1.185000E+03  1.250000E+02 -5.225000E+03  2.066540E-06 -1.628995E-09 -1.141561E-11 -2.066539E-06  1.181700E-08 -9.334859E-12 -6.541498E-14 -1.181700E-08  0.000000E+00  0.000000E+00  0.000000E+00  0.000000E+00  0.000000E+00  0.000000E+00  0.000000E+00  0.000000E+00  1.934876E+00 -1.612387E-03 -1.129436E-05 -1.934875E+00                                                                                                                                                                                                                                                                                                                                                                                                                                                                                              
  1.435000E+03  1.250000E+02 -5.225000E+03  2.070135E-06 -8.751505E-10 -1.776183E-11 -2.070135E-06  1.184120E-08 -5.015416E-12 -1.018033E-13 -1.184120E-08  0.000000E+00  0.000000E+00  0.000000E+00  0.000000E+00  0.000000E+00  0.000000E+00  0.000000E+00  0.000000E+00  1.942430E+00 -8.665510E-04 -1.758743E-05 -1.942430E+00                                                                                                                                                                                                                                                                                                                                                                                                                                                                                              
  1.250000E+02  1.250000E+02 -4.975000E+03  2.095075E-06  1.054143E-09  3.830583E-12 -2.095075E-06  1.156101E-08  5.855316E-12  2.128524E-14 -1.156101E-08  0.000000E+00  0.000000E+00  0.000000E+00  0.000000E+00  0.000000E+00  0.000000E+00  0.000000E+00  0.000000E+00  1.632651E+00  9.328276E-04  3.389744E-06 -1.632651E+00                                                                                                                                                                                                                                                                                                                                                                                                                                                                                              
  3.750000E+02  1.250000E+02 -4.975000E+03  2.090124E-06  1.803847E-09  1.430082E-12 -2.090123E-06  1.152586E-08  1.001682E-11  7.940697E-15 -1.152585E-08  0.000000E+00  0.000000E+00  0.000000E+00  0.000000E+00  0.000000E+00  0.000000E+00  0.000000E+00  0.000000E+00  1.620265E+00  1.594101E-03  1.261398E-06 -1.620264E+00                                                                                                                                                                                                                                                                                                                                                                                                                                                                                              
  6.250000E+02  1.250000E+02 -4.975000E+03  2.086597E-06  4.960919E-10 -1.875521E-12 -2.086597E-06  1.150005E-08  2.754118E-12 -1.040766E-14 -1.150005E-08  0.000000E+00  0.000000E+00  0.000000E+00  0.000000E+00  0.000000E+00  0.000000E+00  0.000000E+00  0.000000E+00  1.610922E+00  4.381356E-04 -1.649752E-06 -1.610922E+00                                                                                                                                                                                                                                                                                                                                                                                                                                                                                              
  7.600000E+02  1.250000E+02 -4.975000E+03  2.086571E-06 -6.100836E-10 -3.506004E-12 -2.086571E-06  1.150048E-08 -3.385649E-12 -1.945663E-14 -1.150048E-08  0.000000E+00  0.000000E+00  0.000000E+00  0.000000E+00  0.000000E+00  0.000000E+00  0.000000E+00  0.000000E+00  1.611464E+00 -5.368072E-04 -3.084735E-06 -1.611464E+00                                                                                                                                                                                                                                                                                                                                                                                                                                                                                              
  7.800000E+02  1.250000E+02 -4.975000E+03  2.086675E-06 -8.154450E-10 -3.753053E-12 -2.086675E-06  1.150129E-08 -4.525462E-12 -2.082811E-14 -1.150129E-08  0.000000E+00  0.000000E+00  0.000000E+00  0.000000E+00  0.000000E+00  0.000000E+00  0.000000E+00  0.000000E+00  1.611782E+00 -7.176189E-04 -3.302442E-06 -1.611782E+00                                                                                                                                                                                                                                                                                                                                                                                                                                                                                              
  8.000000E+02  1.250000E+02 -4.975000E+03  2.086958E-06 -1.013348E-09 -4.002878E-12 -2.086958E-06  1.150332E-08 -5.624497E-12 -2.221560E-14 -1.150332E-08  0.000000E+00  0.000000E+00  0.000000E+00  0.000000E+00  0.000000E+00  0.000000E+00  0.000000E+00  0.000000E+00  1.612482E+00 -8.927056E-04 -3.523017E-06 -1.612482E+00                                                                                                                                                                                                                                                                                                                                                                                                                                                                                              
  9.350000E+02  1.250000E+02 -4.975000E+03  2.089393E-06 -1.461589E-09 -5.690802E-12 -2.089393E-06  1.152068E-08 -8.115436E-12 -3.159560E-14 -1.152067E-08  0.000000E+00  0.000000E+00  0.000000E+00  0.000000E+00  0.000000E+00  0.000000E+00  0.000000E+00  0.000000E+00  1.618385E+00 -1.290418E-03 -5.017250E-06 -1.618385E+00                                                                                                                                                                                                                                                                                                                                                                                                                                                                                              
  1.185000E+03  1.250000E+02 -4.975000E+03  2.091690E-06 -2.259571E-09 -1.189243E-11 -2.091689E-06  1.153873E-08 -1.255334E-11 -6.606111E-14 -1.153872E-08  0.000000E+00  0.000000E+00  0.000000E+00  0.000000E+00  0.000000E+00  0.000000E+00  0.000000E+00  0.000000E+00  1.625855E+00 -2.001105E-03 -1.050893E-05 -1.625854E+00                                                                                                                                                                                                                                                                                                                                                                                                                                                                                              
  1.435000E+03  1.250000E+02 -4.975000E+03  2.097725E-06 -1.352357E-09 -2.244836E-11 -2.097724E-06  1.158116E-08 -7.515205E-12 -1.248023E-13 -1.158116E-08  0.000000E+00  0.000000E+00  0.000000E+00  0.000000E+00  0.000000E+00  0.000000E+00  0.000000E+00  0.000000E+00  1.640684E+00 -1.199444E-03 -1.991091E-05 -1.640684E+00                                                                                                                                                                                                                                                                                                                                                                                                                                                                                              
  1.250000E+02  1.250000E+02 -4.725000E+03  2.129572E-06 -1.910167E-09 -2.768163E-12 -2.129571E-06  1.122181E-08 -1.007175E-11 -1.460365E-14 -1.122180E-08  0.000000E+00  0.000000E+00  0.000000E+00  0.000000E+00  0.000000E+00  0.000000E+00  0.000000E+00  0.000000E+00  1.143078E+00 -1.279865E-03 -1.869631E-06 -1.143077E+00                                                                                                                                                                                                                                                                                                                                                                                                                                                                                              
  3.750000E+02  1.250000E+02 -4.725000E+03  2.125182E-06 -3.459576E-09 -1.010448E-12 -2.125179E-06  1.118996E-08 -1.823337E-11 -5.324723E-15 -1.118994E-08  0.000000E+00  0.000000E+00  0.000000E+00  0.000000E+00  0.000000E+00  0.000000E+00  0.000000E+00  0.000000E+00  1.134497E+00 -2.311877E-03 -6.770211E-07 -1.134495E+00                                                                                                                                                                                                                                                                                                                                                                                                                                                                                              
  6.250000E+02  1.250000E+02 -4.725000E+03  2.122502E-06 -8.989900E-10  4.233141E-12 -2.122502E-06  1.116930E-08 -4.736829E-12  2.228897E-14 -1.116930E-08  0.000000E+00  0.000000E+00  0.000000E+00  0.000000E+00  0.000000E+00  0.000000E+00  0.000000E+00  0.000000E+00  1.128697E+00 -5.987882E-04  2.819559E-06 -1.128697E+00                                                                                                                                                                                                                                                                                                                                                                                                                                                                                              
  7.600000E+02  1.250000E+02 -4.725000E+03  2.122629E-06  1.509580E-09  6.468445E-12 -2.122628E-06  1.117041E-08  7.948909E-12  3.406071E-14 -1.117041E-08  0.000000E+00  0.000000E+00  0.000000E+00  0.000000E+00  0.000000E+00  0.000000E+00  0.000000E+00  0.000000E+00  1.129010E+00  1.005732E-03  4.310297E-06 -1.129010E+00                                                                                                                                                                                                                                                                                                                                                                                                                                                                                              
  7.800000E+02  1.250000E+02 -4.725000E+03  2.122717E-06  1.924549E-09  6.799896E-12 -2.122716E-06  1.117110E-08  1.013443E-11  3.580704E-14 -1.117110E-08  0.000000E+00  0.000000E+00  0.000000E+00  0.000000E+00  0.000000E+00  0.000000E+00  0.000000E+00  0.000000E+00  1.129204E+00  1.282584E-03  4.532093E-06 -1.129203E+00                                                                                                                                                                                                                                                                                                                                                                                                                                                                                              
  8.000000E+02  1.250000E+02 -4.725000E+03  2.122912E-06  2.321093E-09  7.133055E-12 -2.122911E-06  1.117261E-08  1.222470E-11  3.756360E-14 -1.117261E-08  0.000000E+00  0.000000E+00  0.000000E+00  0.000000E+00  0.000000E+00  0.000000E+00  0.000000E+00  0.000000E+00  1.129629E+00  1.547352E-03  4.756165E-06 -1.129628E+00                                                                                                                                                                                                                                                                                                                                                                                                                                                                                              
  9.350000E+02  1.250000E+02 -4.725000E+03  2.124586E-06  3.105718E-09  9.352282E-12 -2.124584E-06  1.118552E-08  1.636517E-11  4.927482E-14 -1.118551E-08  0.000000E+00  0.000000E+00  0.000000E+00  0.000000E+00  0.000000E+00  0.000000E+00  0.000000E+00  0.000000E+00  1.133264E+00  2.075272E-03  6.258379E-06 -1.133262E+00                                                                                                                                                                                                                                                                                                                                                                                                                                                                                              
  1.185000E+03  1.250000E+02 -4.725000E+03  2.126760E-06  4.017672E-09  1.765387E-11 -2.126757E-06  1.120239E-08  2.118770E-11  9.307978E-14 -1.120237E-08  0.000000E+00  0.000000E+00  0.000000E+00  0.000000E+00  0.000000E+00  0.000000E+00  0.000000E+00  0.000000E+00  1.138002E+00  2.695915E-03  1.187360E-05 -1.137999E+00                                                                                                                                                                                                                                                                                                                                                                                                                                                                                              