Title="TOUGHREACT V3.30-OMP flowvector.tec: Liq & Gas Fluxes (kg/s/m^2), Pore Velocities (m/s), & Heat Fluxes (J/s/m2)"                                                                                                                                                                                                                                                                                                                                                                                                                                                                                                                                                                                                                                                                                                         
Variables= "X(m)"     "Y(m)"      "Z(m)"     "FluxLiq"   "FluxLiq_X"   "FluxLiq_Y"   "FluxLiq_Z"   "PorVelLiq"  "PorVelLiqX"  "PorVelLiqY"  "PorVelLiqZ"     "FluxGas"   "FluxGas_X"   "FluxGas_Y"   "FluxGas_Z"   "PorVelGas"  "PorVelGasX"  "PorVelGasY"  "PorVelGasZ"    "HeatFlux"  "HeatFlux_X"  "HeatFlux_Y"  "HeatFlux_Z"                                                                                                                                                                                                                                                                                                                                                                                                                                                                                                
Zone T= "9.33000000E+10 sec" I=     9 J=    10 K=    23 F=Point
  1.250000E+02  1.250000E+02 -5.425000E+03  9.814437E-07  0.000000E+00  0.000000E+00 -9.814437E-07  5.643971E-09  0.000000E+00  0.000000E+00 -5.643971E-09  0.000000E+00  0.000000E+00  0.000000E+00  0.000000E+00  0.000000E+00  0.000000E+00  0.000000E+00  0.000000E+00  9.025095E-01  0.000000E+00  0.000000E+00 -9.025095E-01                                                                                                                                                                                                                                                                                                                                                                                                                                                                                              
  3.750000E+02  1.250000E+02 -5.425000E+03  9.800202E-07  0.000000E+00  0.000000E+00 -9.800202E-07  5.634611E-09  0.000000E+00  0.000000E+00 -5.634611E-09  0.000000E+00  0.000000E+00  0.000000E+00  0.000000E+00  0.000000E+00  0.000000E+00  0.000000E+00  0.000000E+00  8.996307E-01  0.000000E+00  0.000000E+00 -8.996307E-01                                                                                                                                                                                                                                                                                                                                                                                                                                                                                              
  6.250000E+02  1.250000E+02 -5.425000E+03  9.788560E-07  0.000000E+00  0.000000E+00 -9.788560E-07  5.626917E-09  0.000000E+00  0.000000E+00 -5.626917E-09  0.000000E+00  0.000000E+00  0.000000E+00  0.000000E+00  0.000000E+00  0.000000E+00  0.000000E+00  0.000000E+00  8.972222E-01  0.000000E+00  0.000000E+00 -8.972222E-01                                                                                                                                                                                                                                                                                                                                                                                                                                                                                              
  7.600000E+02  1.250000E+02 -5.425000E+03  9.790096E-07  0.000000E+00  0.000000E+00 -9.790096E-07  5.627887E-09  0.000000E+00  0.000000E+00 -5.627887E-09  0.000000E+00  0.000000E+00  0.000000E+00  0.000000E+00  0.000000E+00  0.000000E+00  0.000000E+00  0.000000E+00  8.974798E-01  0.000000E+00  0.000000E+00 -8.974798E-01                                                                                                                                                                                                                                                                                                                                                                                                                                                                                              
  7.800000E+02  1.250000E+02 -5.425000E+03  9.790543E-07  0.000000E+00  0.000000E+00 -9.790543E-07  5.628182E-09  0.000000E+00  0.000000E+00 -5.628182E-09  0.000000E+00  0.000000E+00  0.000000E+00  0.000000E+00  0.000000E+00  0.000000E+00  0.000000E+00  0.000000E+00  8.975713E-01  0.000000E+00  0.000000E+00 -8.975713E-01                                                                                                                                                                                                                                                                                                                                                                                                                                                                                              
  8.000000E+02  1.250000E+02 -5.425000E+03  9.791321E-07  0.000000E+00  0.000000E+00 -9.791321E-07  5.628709E-09  0.000000E+00  0.000000E+00 -5.628709E-09  0.000000E+00  0.000000E+00  0.000000E+00  0.000000E+00  0.000000E+00  0.000000E+00  0.000000E+00  0.000000E+00  8.977486E-01  0.000000E+00  0.000000E+00 -8.977486E-01                                                                                                                                                                                                                                                                                                                                                                                                                                                                                              
  9.350000E+02  1.250000E+02 -5.425000E+03  9.797591E-07  0.000000E+00  0.000000E+00 -9.797591E-07  5.632955E-09  0.000000E+00  0.000000E+00 -5.632955E-09  0.000000E+00  0.000000E+00  0.000000E+00  0.000000E+00  0.000000E+00  0.000000E+00  0.000000E+00  0.000000E+00  8.991813E-01  0.000000E+00  0.000000E+00 -8.991813E-01                                                                                                                                                                                                                                                                                                                                                                                                                                                                                              
  1.185000E+03  1.250000E+02 -5.425000E+03  9.809152E-07  0.000000E+00  0.000000E+00 -9.809152E-07  5.640415E-09  0.000000E+00  0.000000E+00 -5.640415E-09  0.000000E+00  0.000000E+00  0.000000E+00  0.000000E+00  0.000000E+00  0.000000E+00  0.000000E+00  0.000000E+00  9.013338E-01  0.000000E+00  0.000000E+00 -9.013338E-01                                                                                                                                                                                                                                                                                                                                                                                                                                                                                              
  1.435000E+03  1.250000E+02 -5.425000E+03  9.825838E-07  0.000000E+00  0.000000E+00 -9.825838E-07  5.651349E-09  0.000000E+00  0.000000E+00 -5.651349E-09  0.000000E+00  0.000000E+00  0.000000E+00  0.000000E+00  0.000000E+00  0.000000E+00  0.000000E+00  0.000000E+00  9.046579E-01  0.000000E+00  0.000000E+00 -9.046579E-01                                                                                                                                                                                                                                                                                                                                                                                                                                                                                              
  1.250000E+02  1.250000E+02 -5.225000E+03  1.974855E-06  4.973612E-10  2.058027E-12 -1.974855E-06  1.111161E-08  2.796014E-12  1.157209E-14 -1.111161E-08  0.000000E+00  0.000000E+00  0.000000E+00  0.000000E+00  0.000000E+00  0.000000E+00  0.000000E+00  0.000000E+00  1.667522E+00  4.573602E-04  1.892507E-06 -1.667521E+00                                                                                                                                                                                                                                                                                                                                                                                                                                                                                              
  3.750000E+02  1.250000E+02 -5.225000E+03  1.971465E-06  8.771393E-10  1.179659E-12 -1.971465E-06  1.108841E-08  4.930184E-12  6.630333E-15 -1.108841E-08  0.000000E+00  0.000000E+00  0.000000E+00  0.000000E+00  0.000000E+00  0.000000E+00  0.000000E+00  0.000000E+00  1.660092E+00  8.059856E-04  1.082893E-06 -1.660092E+00                                                                                                                                                                                                                                                                                                                                                                                                                                                                                              
  6.250000E+02  1.250000E+02 -5.225000E+03  1.968783E-06  2.394767E-10 -2.734047E-13 -1.968783E-06  1.106990E-08  1.345869E-12 -1.536137E-15 -1.106990E-08  0.000000E+00  0.000000E+00  0.000000E+00  0.000000E+00  0.000000E+00  0.000000E+00  0.000000E+00  0.000000E+00  1.654107E+00  2.200082E-04 -2.506041E-07 -1.654107E+00                                                                                                                                                                                                                                                                                                                                                                                                                                                                                              
  7.600000E+02  1.250000E+02 -5.225000E+03  1.969040E-06 -3.256938E-10 -1.027952E-12 -1.969040E-06  1.107166E-08 -1.829977E-12 -5.775774E-15 -1.107166E-08  0.000000E+00  0.000000E+00  0.000000E+00  0.000000E+00  0.000000E+00  0.000000E+00  0.000000E+00  0.000000E+00  1.654660E+00 -2.985803E-04 -9.423489E-07 -1.654660E+00                                                                                                                                                                                                                                                                                                                                                                                                                                                                                              
  7.800000E+02  1.250000E+02 -5.225000E+03  1.969137E-06 -4.151673E-10 -1.142787E-12 -1.969137E-06  1.107233E-08 -2.332751E-12 -6.421088E-15 -1.107233E-08  0.000000E+00  0.000000E+00  0.000000E+00  0.000000E+00  0.000000E+00  0.000000E+00  0.000000E+00  0.000000E+00  1.654879E+00 -3.806394E-04 -1.047680E-06 -1.654879E+00                                                                                                                                                                                                                                                                                                                                                                                                                                                                                              
  8.000000E+02  1.250000E+02 -5.225000E+03  1.969325E-06 -5.010782E-10 -1.258935E-12 -1.969325E-06  1.107365E-08 -2.815686E-12 -7.073899E-15 -1.107365E-08  0.000000E+00  0.000000E+00  0.000000E+00  0.000000E+00  0.000000E+00  0.000000E+00  0.000000E+00  0.000000E+00  1.655321E+00 -4.596671E-04 -1.154299E-06 -1.655321E+00                                                                                                                                                                                                                                                                                                                                                                                                                                                                                              
  9.350000E+02  1.250000E+02 -5.225000E+03  1.970860E-06 -7.529438E-10 -2.052147E-12 -1.970860E-06  1.108442E-08 -4.231927E-12 -1.153357E-14 -1.108442E-08  0.000000E+00  0.000000E+00  0.000000E+00  0.000000E+00  0.000000E+00  0.000000E+00  0.000000E+00  0.000000E+00  1.658920E+00 -6.915558E-04 -1.883380E-06 -1.658920E+00                                                                                                                                                                                                                                                                                                                                                                                                                                                                                              
  1.185000E+03  1.250000E+02 -5.225000E+03  1.973203E-06 -1.089615E-09 -4.813885E-12 -1.973203E-06  1.110049E-08 -6.126061E-12 -2.706308E-14 -1.110049E-08  0.000000E+00  0.000000E+00  0.000000E+00  0.000000E+00  0.000000E+00  0.000000E+00  0.000000E+00  0.000000E+00  1.664056E+00 -1.002323E-03 -4.423371E-06 -1.664056E+00                                                                                                                                                                                                                                                                                                                                                                                                                                                                                              
  1.435000E+03  1.250000E+02 -5.225000E+03  1.977179E-06 -6.079743E-10 -8.959229E-12 -1.977179E-06  1.112765E-08 -3.418745E-12 -5.039181E-14 -1.112765E-08  0.000000E+00  0.000000E+00  0.000000E+00  0.000000E+00  0.000000E+00  0.000000E+00  0.000000E+00  0.000000E+00  1.672729E+00 -5.597575E-04 -8.248875E-06 -1.672728E+00                                                                                                                                                                                                                                                                                                                                                                                                                                                                                              
  1.250000E+02  1.250000E+02 -4.975000E+03  2.001456E-06  3.725674E-10  2.949380E-12 -2.001456E-06  1.078102E-08  2.012937E-12  1.594085E-14 -1.078102E-08  0.000000E+00  0.000000E+00  0.000000E+00  0.000000E+00  0.000000E+00  0.000000E+00  0.000000E+00  0.000000E+00  1.332024E+00  2.869090E-04  2.271276E-06 -1.332024E+00                                                                                                                                                                                                                                                                                                                                                                                                                                                                                              
  3.750000E+02  1.250000E+02 -4.975000E+03  1.996964E-06  6.331442E-10  2.280643E-12 -1.996963E-06  1.075052E-08  3.419927E-12  1.231789E-14 -1.075052E-08  0.000000E+00  0.000000E+00  0.000000E+00  0.000000E+00  0.000000E+00  0.000000E+00  0.000000E+00  0.000000E+00  1.322965E+00  4.867775E-04  1.749307E-06 -1.322965E+00                                                                                                                                                                                                                                                                                                                                                                                                                                                                                              
  6.250000E+02  1.250000E+02 -4.975000E+03  1.993662E-06  2.136973E-10  1.608940E-12 -1.993662E-06  1.072775E-08  1.153925E-12  8.685194E-15 -1.072775E-08  0.000000E+00  0.000000E+00  0.000000E+00  0.000000E+00  0.000000E+00  0.000000E+00  0.000000E+00  0.000000E+00  1.316136E+00  1.640149E-04  1.230174E-06 -1.316136E+00                                                                                                                                                                                                                                                                                                                                                                                                                                                                                              
  7.600000E+02  1.250000E+02 -4.975000E+03  1.993698E-06 -1.325773E-10  1.483494E-12 -1.993698E-06  1.072839E-08 -7.156966E-13  8.008422E-15 -1.072839E-08  0.000000E+00  0.000000E+00  0.000000E+00  0.000000E+00  0.000000E+00  0.000000E+00  0.000000E+00  0.000000E+00  1.316542E+00 -1.014034E-04  1.134583E-06 -1.316542E+00                                                                                                                                                                                                                                                                                                                                                                                                                                                                                              
  7.800000E+02  1.250000E+02 -4.975000E+03  1.993801E-06 -2.104852E-10  1.465621E-12 -1.993801E-06  1.072913E-08 -1.136304E-12  7.912096E-15 -1.072913E-08  0.000000E+00  0.000000E+00  0.000000E+00  0.000000E+00  0.000000E+00  0.000000E+00  0.000000E+00  0.000000E+00  1.316775E+00 -1.610215E-04  1.121044E-06 -1.316775E+00                                                                                                                                                                                                                                                                                                                                                                                                                                                                                              
  8.000000E+02  1.250000E+02 -4.975000E+03  1.994063E-06 -2.857353E-10  1.449204E-12 -1.994063E-06  1.073091E-08 -1.542720E-12  7.823792E-15 -1.073091E-08  0.000000E+00  0.000000E+00  0.000000E+00  0.000000E+00  0.000000E+00  0.000000E+00  0.000000E+00  0.000000E+00  1.317288E+00 -2.188480E-04  1.108750E-06 -1.317288E+00                                                                                                                                                                                                                                                                                                                                                                                                                                                                                              
  9.350000E+02  1.250000E+02 -4.975000E+03  1.996313E-06 -3.854442E-10  1.348962E-12 -1.996313E-06  1.074607E-08 -2.081717E-12  7.285071E-15 -1.074607E-08  0.000000E+00  0.000000E+00  0.000000E+00  0.000000E+00  0.000000E+00  0.000000E+00  0.000000E+00  0.000000E+00  1.321597E+00 -2.959354E-04  1.034061E-06 -1.321597E+00                                                                                                                                                                                                                                                                                                                                                                                                                                                                                              
  1.185000E+03  1.250000E+02 -4.975000E+03  1.998580E-06 -6.751689E-10  1.912403E-13 -1.998580E-06  1.076255E-08 -3.648643E-12  1.033284E-15 -1.076255E-08  0.000000E+00  0.000000E+00  0.000000E+00  0.000000E+00  0.000000E+00  0.000000E+00  0.000000E+00  0.000000E+00  1.327073E+00 -5.205886E-04  1.469969E-07 -1.327073E+00                                                                                                                                                                                                                                                                                                                                                                                                                                                                                              
  1.435000E+03  1.250000E+02 -4.975000E+03  2.003950E-06 -4.506726E-10 -3.121576E-12 -2.003950E-06  1.079891E-08 -2.435973E-12 -1.687993E-14 -1.079891E-08  0.000000E+00  0.000000E+00  0.000000E+00  0.000000E+00  0.000000E+00  0.000000E+00  0.000000E+00  0.000000E+00  1.337891E+00 -3.480294E-04 -2.410745E-06 -1.337891E+00                                                                                                                                                                                                                                                                                                                                                                                                                                                                                              
  1.250000E+02  1.250000E+02 -4.725000E+03  2.024050E-06 -1.354249E-09 -2.289656E-12 -2.024049E-06  1.047364E-08 -6.985029E-12 -1.181295E-14 -1.047364E-08  0.000000E+00  0.000000E+00  0.000000E+00  0.000000E+00  0.000000E+00  0.000000E+00  0.000000E+00  0.000000E+00  9.734175E-01 -7.575893E-04 -1.287881E-06 -9.734172E-01                                                                                                                                                                                                                                                                                                                                                                                                                                                                                              
  3.750000E+02  1.250000E+02 -4.725000E+03  2.020471E-06 -2.377578E-09 -2.606165E-13 -2.020469E-06  1.045015E-08 -1.226063E-11 -1.343832E-15 -1.045014E-08  0.000000E+00  0.000000E+00  0.000000E+00  0.000000E+00  0.000000E+00  0.000000E+00  0.000000E+00  0.000000E+00  9.684855E-01 -1.327758E-03 -1.457920E-07 -9.684846E-01                                                                                                                                                                                                                                                                                                                                                                                                                                                                                              
  6.250000E+02  1.250000E+02 -4.725000E+03  2.017868E-06 -5.966092E-10  3.520175E-12 -2.017868E-06  1.043296E-08 -3.076153E-12  1.814383E-14 -1.043296E-08  0.000000E+00  0.000000E+00  0.000000E+00  0.000000E+00  0.000000E+00  0.000000E+00  0.000000E+00  0.000000E+00  9.649047E-01 -3.324131E-04  1.961338E-06 -9.649047E-01                                                                                                                                                                                                                                                                                                                                                                                                                                                                                              
  7.600000E+02  1.250000E+02 -4.725000E+03  2.018045E-06  9.932683E-10  5.120533E-12 -2.018045E-06  1.043412E-08  5.119676E-12  2.639320E-14 -1.043412E-08  0.000000E+00  0.000000E+00  0.000000E+00  0.000000E+00  0.000000E+00  0.000000E+00  0.000000E+00  0.000000E+00  9.651129E-01  5.535032E-04  2.853764E-06 -9.651127E-01                                                                                                                                                                                                                                                                                                                                                                                                                                                                                              
  7.800000E+02  1.250000E+02 -4.725000E+03  2.018135E-06  1.271483E-09  5.359099E-12 -2.018134E-06  1.043472E-08  6.553837E-12  2.762325E-14 -1.043471E-08  0.000000E+00  0.000000E+00  0.000000E+00  0.000000E+00  0.000000E+00  0.000000E+00  0.000000E+00  0.000000E+00  9.652340E-01  7.086742E-04  2.987133E-06 -9.652337E-01                                                                                                                                                                                                                                                                                                                                                                                                                                                                                              
  8.000000E+02  1.250000E+02 -4.725000E+03  2.018319E-06  1.537740E-09  5.600575E-12 -2.018319E-06  1.043595E-08  7.926956E-12  2.886879E-14 -1.043595E-08  0.000000E+00  0.000000E+00  0.000000E+00  0.000000E+00  0.000000E+00  0.000000E+00  0.000000E+00  0.000000E+00  9.654953E-01  8.572635E-04  3.122643E-06 -9.654949E-01                                                                                                                                                                                                                                                                                                                                                                                                                                                                                              
  9.350000E+02  1.250000E+02 -4.725000E+03  2.019909E-06  2.073740E-09  7.219531E-12 -2.019908E-06  1.044651E-08  1.069264E-11  3.722331E-14 -1.044650E-08  0.000000E+00  0.000000E+00  0.000000E+00  0.000000E+00  0.000000E+00  0.000000E+00  0.000000E+00  0.000000E+00  9.677375E-01  1.157951E-03  4.035319E-06 -9.677368E-01                                                                                                                                                                                                                                                                                                                                                                                                                                                                                              
  1.185000E+03  1.250000E+02 -4.725000E+03  2.022209E-06  2.887131E-09  1.359487E-11 -2.022207E-06  1.046148E-08  1.489287E-11  7.011838E-14 -1.046147E-08  0.000000E+00  0.000000E+00  0.000000E+00  0.000000E+00  0.000000E+00  0.000000E+00  0.000000E+00  0.000000E+00  9.707193E-01  1.616837E-03  7.624306E-06 -9.707180E-01                                                                                                                                                                                                                                                                                                                                                                                                                                                                                              