Title="TOUGHREACT V3.30-OMP flowvector.tec: Liq & Gas Fluxes (kg/s/m^2), Pore Velocities (m/s), & Heat Fluxes (J/s/m2)"                                                                                                                                                                                                                                                                                                                                                                                                                                                                                                                                                                                                                                                                                                         
Variables= "X(m)"     "Y(m)"      "Z(m)"     "FluxLiq"   "FluxLiq_X"   "FluxLiq_Y"   "FluxLiq_Z"   "PorVelLiq"  "PorVelLiqX"  "PorVelLiqY"  "PorVelLiqZ"     "FluxGas"   "FluxGas_X"   "FluxGas_Y"   "FluxGas_Z"   "PorVelGas"  "PorVelGasX"  "PorVelGasY"  "PorVelGasZ"    "HeatFlux"  "HeatFlux_X"  "HeatFlux_Y"  "HeatFlux_Z"                                                                                                                                                                                                                                                                                                                                                                                                                                                                                                
Zone T= "3.33000000E+10 sec" I=     9 J=    10 K=    23 F=Point
  1.250000E+02  1.250000E+02 -5.425000E+03  1.051684E-06  0.000000E+00  0.000000E+00 -1.051684E-06  6.126718E-09  0.000000E+00  0.000000E+00 -6.126718E-09  0.000000E+00  0.000000E+00  0.000000E+00  0.000000E+00  0.000000E+00  0.000000E+00  0.000000E+00  0.000000E+00  1.067504E+00  0.000000E+00  0.000000E+00 -1.067504E+00                                                                                                                                                                                                                                                                                                                                                                                                                                                                                              
  3.750000E+02  1.250000E+02 -5.425000E+03  1.050501E-06  0.000000E+00  0.000000E+00 -1.050501E-06  6.119648E-09  0.000000E+00  0.000000E+00 -6.119648E-09  0.000000E+00  0.000000E+00  0.000000E+00  0.000000E+00  0.000000E+00  0.000000E+00  0.000000E+00  0.000000E+00  1.066070E+00  0.000000E+00  0.000000E+00 -1.066070E+00                                                                                                                                                                                                                                                                                                                                                                                                                                                                                              
  6.250000E+02  1.250000E+02 -5.425000E+03  1.049586E-06  0.000000E+00  0.000000E+00 -1.049586E-06  6.114085E-09  0.000000E+00  0.000000E+00 -6.114085E-09  0.000000E+00  0.000000E+00  0.000000E+00  0.000000E+00  0.000000E+00  0.000000E+00  0.000000E+00  0.000000E+00  1.064849E+00  0.000000E+00  0.000000E+00 -1.064849E+00                                                                                                                                                                                                                                                                                                                                                                                                                                                                                              
  7.600000E+02  1.250000E+02 -5.425000E+03  1.049802E-06  0.000000E+00  0.000000E+00 -1.049802E-06  6.115353E-09  0.000000E+00  0.000000E+00 -6.115353E-09  0.000000E+00  0.000000E+00  0.000000E+00  0.000000E+00  0.000000E+00  0.000000E+00  0.000000E+00  0.000000E+00  1.065084E+00  0.000000E+00  0.000000E+00 -1.065084E+00                                                                                                                                                                                                                                                                                                                                                                                                                                                                                              
  7.800000E+02  1.250000E+02 -5.425000E+03  1.049845E-06  0.000000E+00  0.000000E+00 -1.049845E-06  6.115615E-09  0.000000E+00  0.000000E+00 -6.115615E-09  0.000000E+00  0.000000E+00  0.000000E+00  0.000000E+00  0.000000E+00  0.000000E+00  0.000000E+00  0.000000E+00  1.065140E+00  0.000000E+00  0.000000E+00 -1.065140E+00                                                                                                                                                                                                                                                                                                                                                                                                                                                                                              
  8.000000E+02  1.250000E+02 -5.425000E+03  1.049902E-06  0.000000E+00  0.000000E+00 -1.049902E-06  6.115968E-09  0.000000E+00  0.000000E+00 -6.115968E-09  0.000000E+00  0.000000E+00  0.000000E+00  0.000000E+00  0.000000E+00  0.000000E+00  0.000000E+00  0.000000E+00  1.065226E+00  0.000000E+00  0.000000E+00 -1.065226E+00                                                                                                                                                                                                                                                                                                                                                                                                                                                                                              
  9.350000E+02  1.250000E+02 -5.425000E+03  1.050352E-06  0.000000E+00  0.000000E+00 -1.050352E-06  6.118779E-09  0.000000E+00  0.000000E+00 -6.118779E-09  0.000000E+00  0.000000E+00  0.000000E+00  0.000000E+00  0.000000E+00  0.000000E+00  0.000000E+00  0.000000E+00  1.065920E+00  0.000000E+00  0.000000E+00 -1.065920E+00                                                                                                                                                                                                                                                                                                                                                                                                                                                                                              
  1.185000E+03  1.250000E+02 -5.425000E+03  1.051747E-06  0.000000E+00  0.000000E+00 -1.051747E-06  6.127010E-09  0.000000E+00  0.000000E+00 -6.127010E-09  0.000000E+00  0.000000E+00  0.000000E+00  0.000000E+00  0.000000E+00  0.000000E+00  0.000000E+00  0.000000E+00  1.067482E+00  0.000000E+00  0.000000E+00 -1.067482E+00                                                                                                                                                                                                                                                                                                                                                                                                                                                                                              
  1.435000E+03  1.250000E+02 -5.425000E+03  1.053367E-06  0.000000E+00  0.000000E+00 -1.053367E-06  6.136601E-09  0.000000E+00  0.000000E+00 -6.136601E-09  0.000000E+00  0.000000E+00  0.000000E+00  0.000000E+00  0.000000E+00  0.000000E+00  0.000000E+00  0.000000E+00  1.069335E+00  0.000000E+00  0.000000E+00 -1.069335E+00                                                                                                                                                                                                                                                                                                                                                                                                                                                                                              
  1.250000E+02  1.250000E+02 -5.225000E+03  2.110888E-06  8.905430E-10 -1.003027E-12 -2.110887E-06  1.215827E-08  5.140103E-12 -5.789533E-15 -1.215827E-08  0.000000E+00  0.000000E+00  0.000000E+00  0.000000E+00  0.000000E+00  0.000000E+00  0.000000E+00  0.000000E+00  2.063374E+00  9.039386E-04 -1.018114E-06 -2.063373E+00                                                                                                                                                                                                                                                                                                                                                                                                                                                                                              
  3.750000E+02  1.250000E+02 -5.225000E+03  2.107543E-06  1.548648E-09 -4.410000E-12 -2.107543E-06  1.213711E-08  8.938338E-12 -2.545323E-14 -1.213711E-08  0.000000E+00  0.000000E+00  0.000000E+00  0.000000E+00  0.000000E+00  0.000000E+00  0.000000E+00  0.000000E+00  2.057754E+00  1.571797E-03 -4.475353E-06 -2.057753E+00                                                                                                                                                                                                                                                                                                                                                                                                                                                                                              
  6.250000E+02  1.250000E+02 -5.225000E+03  2.105098E-06  3.432300E-10 -1.023861E-11 -2.105098E-06  1.212112E-08  1.981008E-12 -5.908964E-14 -1.212112E-08  0.000000E+00  0.000000E+00  0.000000E+00  0.000000E+00  0.000000E+00  0.000000E+00  0.000000E+00  0.000000E+00  2.053103E+00  3.483996E-04 -1.038750E-05 -2.053103E+00                                                                                                                                                                                                                                                                                                                                                                                                                                                                                              
  7.600000E+02  1.250000E+02 -5.225000E+03  2.105481E-06 -7.101342E-10 -1.417691E-11 -2.105481E-06  1.212348E-08 -4.098384E-12 -8.181891E-14 -1.212348E-08  0.000000E+00  0.000000E+00  0.000000E+00  0.000000E+00  0.000000E+00  0.000000E+00  0.000000E+00  0.000000E+00  2.053674E+00 -7.204765E-04 -1.438328E-05 -2.053673E+00                                                                                                                                                                                                                                                                                                                                                                                                                                                                                              
  7.800000E+02  1.250000E+02 -5.225000E+03  2.105577E-06 -8.696982E-10 -1.477416E-11 -2.105577E-06  1.212411E-08 -5.019295E-12 -8.526613E-14 -1.212411E-08  0.000000E+00  0.000000E+00  0.000000E+00  0.000000E+00  0.000000E+00  0.000000E+00  0.000000E+00  0.000000E+00  2.053856E+00 -8.823815E-04 -1.498941E-05 -2.053856E+00                                                                                                                                                                                                                                                                                                                                                                                                                                                                                              
  8.000000E+02  1.250000E+02 -5.225000E+03  2.105727E-06 -1.024306E-09 -1.538731E-11 -2.105727E-06  1.212514E-08 -5.911707E-12 -8.880546E-14 -1.212514E-08  0.000000E+00  0.000000E+00  0.000000E+00  0.000000E+00  0.000000E+00  0.000000E+00  0.000000E+00  0.000000E+00  2.054187E+00 -1.039381E-03 -1.561190E-05 -2.054187E+00                                                                                                                                                                                                                                                                                                                                                                                                                                                                                              
  9.350000E+02  1.250000E+02 -5.225000E+03  2.106945E-06 -1.636350E-09 -1.961274E-11 -2.106944E-06  1.213349E-08 -9.444542E-12 -1.131991E-13 -1.213349E-08  0.000000E+00  0.000000E+00  0.000000E+00  0.000000E+00  0.000000E+00  0.000000E+00  0.000000E+00  0.000000E+00  2.056910E+00 -1.660755E-03 -1.990344E-05 -2.056910E+00                                                                                                                                                                                                                                                                                                                                                                                                                                                                                              
  1.185000E+03  1.250000E+02 -5.225000E+03  2.109987E-06 -2.336866E-09 -3.073843E-11 -2.109986E-06  1.215237E-08 -1.348827E-11 -1.774199E-13 -1.215236E-08  0.000000E+00  0.000000E+00  0.000000E+00  0.000000E+00  0.000000E+00  0.000000E+00  0.000000E+00  0.000000E+00  2.061584E+00 -2.372075E-03 -3.119827E-05 -2.061583E+00                                                                                                                                                                                                                                                                                                                                                                                                                                                                                              
  1.435000E+03  1.250000E+02 -5.225000E+03  2.114465E-06 -1.250383E-09 -4.274556E-11 -2.114464E-06  1.218013E-08 -7.217293E-12 -2.467373E-13 -1.218013E-08  0.000000E+00  0.000000E+00  0.000000E+00  0.000000E+00  0.000000E+00  0.000000E+00  0.000000E+00  0.000000E+00  2.068484E+00 -1.269337E-03 -4.339358E-05 -2.068484E+00                                                                                                                                                                                                                                                                                                                                                                                                                                                                                              
  1.250000E+02  1.250000E+02 -4.975000E+03  2.135521E-06  2.073101E-09  4.942296E-12 -2.135520E-06  1.194803E-08  1.168397E-11  2.786251E-14 -1.194802E-08  0.000000E+00  0.000000E+00  0.000000E+00  0.000000E+00  0.000000E+00  0.000000E+00  0.000000E+00  0.000000E+00  1.817716E+00  1.949142E-03  4.646779E-06 -1.817715E+00                                                                                                                                                                                                                                                                                                                                                                                                                                                                                              
  3.750000E+02  1.250000E+02 -4.975000E+03  2.128707E-06  3.389605E-09 -3.454677E-12 -2.128704E-06  1.190205E-08  1.909990E-11 -1.946542E-14 -1.190203E-08  0.000000E+00  0.000000E+00  0.000000E+00  0.000000E+00  0.000000E+00  0.000000E+00  0.000000E+00  0.000000E+00  1.802360E+00  3.184245E-03 -3.241057E-06 -1.802357E+00                                                                                                                                                                                                                                                                                                                                                                                                                                                                                              
  6.250000E+02  1.250000E+02 -4.975000E+03  2.124849E-06  8.562168E-10 -1.388917E-11 -2.124849E-06  1.187384E-08  4.823689E-12 -7.821942E-14 -1.187384E-08  0.000000E+00  0.000000E+00  0.000000E+00  0.000000E+00  0.000000E+00  0.000000E+00  0.000000E+00  0.000000E+00  1.791488E+00  8.040674E-04 -1.300418E-05 -1.791488E+00                                                                                                                                                                                                                                                                                                                                                                                                                                                                                              
  7.600000E+02  1.250000E+02 -4.975000E+03  2.124785E-06 -1.092320E-09 -2.038317E-11 -2.124785E-06  1.187408E-08 -6.151848E-12 -1.147967E-13 -1.187408E-08  0.000000E+00  0.000000E+00  0.000000E+00  0.000000E+00  0.000000E+00  0.000000E+00  0.000000E+00  0.000000E+00  1.792090E+00 -1.022948E-03 -1.908787E-05 -1.792090E+00                                                                                                                                                                                                                                                                                                                                                                                                                                                                                              
  7.800000E+02  1.250000E+02 -4.975000E+03  2.124884E-06 -1.435586E-09 -2.137218E-11 -2.124884E-06  1.187488E-08 -8.085333E-12 -1.203691E-13 -1.187488E-08  0.000000E+00  0.000000E+00  0.000000E+00  0.000000E+00  0.000000E+00  0.000000E+00  0.000000E+00  0.000000E+00  1.792449E+00 -1.344578E-03 -2.001559E-05 -1.792448E+00                                                                                                                                                                                                                                                                                                                                                                                                                                                                                              
  8.000000E+02  1.250000E+02 -4.975000E+03  2.125164E-06 -1.769761E-09 -2.238764E-11 -2.125163E-06  1.187694E-08 -9.968546E-12 -1.260933E-13 -1.187694E-08  0.000000E+00  0.000000E+00  0.000000E+00  0.000000E+00  0.000000E+00  0.000000E+00  0.000000E+00  0.000000E+00  1.793240E+00 -1.658882E-03 -2.096997E-05 -1.793240E+00                                                                                                                                                                                                                                                                                                                                                                                                                                                                                              
  9.350000E+02  1.250000E+02 -4.975000E+03  2.127581E-06 -2.953070E-09 -2.942371E-11 -2.127579E-06  1.189463E-08 -1.663917E-11 -1.657771E-13 -1.189462E-08  0.000000E+00  0.000000E+00  0.000000E+00  0.000000E+00  0.000000E+00  0.000000E+00  0.000000E+00  0.000000E+00  1.799938E+00 -2.772659E-03 -2.759694E-05 -1.799936E+00                                                                                                                                                                                                                                                                                                                                                                                                                                                                                              
  1.185000E+03  1.250000E+02 -4.975000E+03  2.130620E-06 -4.999146E-09 -5.071562E-11 -2.130614E-06  1.191713E-08 -2.817943E-11 -2.858508E-13 -1.191710E-08  0.000000E+00  0.000000E+00  0.000000E+00  0.000000E+00  0.000000E+00  0.000000E+00  0.000000E+00  0.000000E+00  1.809028E+00 -4.702864E-03 -4.764231E-05 -1.809022E+00                                                                                                                                                                                                                                                                                                                                                                                                                                                                                              
  1.435000E+03  1.250000E+02 -4.975000E+03  2.139911E-06 -3.012284E-09 -8.088070E-11 -2.139909E-06  1.197810E-08 -1.698307E-11 -4.561415E-13 -1.197809E-08  0.000000E+00  0.000000E+00  0.000000E+00  0.000000E+00  0.000000E+00  0.000000E+00  0.000000E+00  0.000000E+00  1.828152E+00 -2.836421E-03 -7.616066E-05 -1.828149E+00                                                                                                                                                                                                                                                                                                                                                                                                                                                                                              
  1.250000E+02  1.250000E+02 -4.725000E+03  2.180005E-06  7.229293E-11  1.157600E-11 -2.180005E-06  1.164139E-08  3.885047E-13  6.226133E-14 -1.164139E-08  0.000000E+00  0.000000E+00  0.000000E+00  0.000000E+00  0.000000E+00  0.000000E+00  0.000000E+00  0.000000E+00  1.266952E+00  5.520086E-05  8.839109E-06 -1.266952E+00                                                                                                                                                                                                                                                                                                                                                                                                                                                                                              
  3.750000E+02  1.250000E+02 -4.725000E+03  2.168693E-06 -1.170979E-09 -1.207646E-12 -2.168692E-06  1.156907E-08 -6.283788E-12 -6.484869E-15 -1.156907E-08  0.000000E+00  0.000000E+00  0.000000E+00  0.000000E+00  0.000000E+00  0.000000E+00  0.000000E+00  0.000000E+00  1.249501E+00 -8.786846E-04 -9.135283E-07 -1.249500E+00                                                                                                                                                                                                                                                                                                                                                                                                                                                                                              
  6.250000E+02  1.250000E+02 -4.725000E+03  2.166809E-06 -5.267889E-10 -1.555215E-12 -2.166809E-06  1.155019E-08 -2.829314E-12 -8.341261E-15 -1.155019E-08  0.000000E+00  0.000000E+00  0.000000E+00  0.000000E+00  0.000000E+00  0.000000E+00  0.000000E+00  0.000000E+00  1.242222E+00 -3.956981E-04 -1.168213E-06 -1.242222E+00                                                                                                                                                                                                                                                                                                                                                                                                                                                                                              
  7.600000E+02  1.250000E+02 -4.725000E+03  2.166807E-06  1.622996E-09 -2.734273E-12 -2.166806E-06  1.155078E-08  8.705541E-12 -1.466643E-14 -1.155078E-08  0.000000E+00  0.000000E+00  0.000000E+00  0.000000E+00  0.000000E+00  0.000000E+00  0.000000E+00  0.000000E+00  1.242582E+00  1.219490E-03 -2.055011E-06 -1.242581E+00                                                                                                                                                                                                                                                                                                                                                                                                                                                                                              
  7.800000E+02  1.250000E+02 -4.725000E+03  2.166864E-06  1.998713E-09 -2.936659E-12 -2.166863E-06  1.155139E-08  1.072153E-11 -1.575267E-14 -1.155138E-08  0.000000E+00  0.000000E+00  0.000000E+00  0.000000E+00  0.000000E+00  0.000000E+00  0.000000E+00  0.000000E+00  1.242819E+00  1.502362E-03 -2.207664E-06 -1.242818E+00                                                                                                                                                                                                                                                                                                                                                                                                                                                                                              
  8.000000E+02  1.250000E+02 -4.725000E+03  2.167014E-06  2.349306E-09 -3.167967E-12 -2.167013E-06  1.155283E-08  1.260534E-11 -1.699489E-14 -1.155283E-08  0.000000E+00  0.000000E+00  0.000000E+00  0.000000E+00  0.000000E+00  0.000000E+00  0.000000E+00  0.000000E+00  1.243350E+00  1.766563E-03 -2.382758E-06 -1.243348E+00                                                                                                                                                                                                                                                                                                                                                                                                                                                                                              
  9.350000E+02  1.250000E+02 -4.725000E+03  2.168303E-06  2.263939E-09 -5.008190E-12 -2.168302E-06  1.156516E-08  1.215442E-11 -2.688638E-14 -1.156515E-08  0.000000E+00  0.000000E+00  0.000000E+00  0.000000E+00  0.000000E+00  0.000000E+00  0.000000E+00  0.000000E+00  1.247875E+00  1.705993E-03 -3.782900E-06 -1.247874E+00                                                                                                                                                                                                                                                                                                                                                                                                                                                                                              
  1.185000E+03  1.250000E+02 -4.725000E+03  2.169313E-06 -4.241809E-10 -1.284295E-11 -2.169313E-06  1.157800E-08 -2.289491E-12 -6.901909E-14 -1.157800E-08  0.000000E+00  0.000000E+00  0.000000E+00  0.000000E+00  0.000000E+00  0.000000E+00  0.000000E+00  0.000000E+00  1.253743E+00 -3.391576E-04 -9.760067E-06 -1.253743E+00                                                                                                                                                                                                                                                                                                                                                                                                                                                                                              