Title="TOUGHREACT V3.30-OMP flowvector.tec: Liq & Gas Fluxes (kg/s/m^2), Pore Velocities (m/s), & Heat Fluxes (J/s/m2)"                                                                                                                                                                                                                                                                                                                                                                                                                                                                                                                                                                                                                                                                                                         
Variables= "X(m)"     "Y(m)"      "Z(m)"     "FluxLiq"   "FluxLiq_X"   "FluxLiq_Y"   "FluxLiq_Z"   "PorVelLiq"  "PorVelLiqX"  "PorVelLiqY"  "PorVelLiqZ"     "FluxGas"   "FluxGas_X"   "FluxGas_Y"   "FluxGas_Z"   "PorVelGas"  "PorVelGasX"  "PorVelGasY"  "PorVelGasZ"    "HeatFlux"  "HeatFlux_X"  "HeatFlux_Y"  "HeatFlux_Z"                                                                                                                                                                                                                                                                                                                                                                                                                                                                                                
Zone T= "3.00000000E+10 sec" I=     9 J=    10 K=    23 F=Point
  1.250000E+02  1.250000E+02 -5.425000E+03  1.055111E-06  0.000000E+00  0.000000E+00 -1.055111E-06  6.149640E-09  0.000000E+00  0.000000E+00 -6.149640E-09  0.000000E+00  0.000000E+00  0.000000E+00  0.000000E+00  0.000000E+00  0.000000E+00  0.000000E+00  0.000000E+00  1.074597E+00  0.000000E+00  0.000000E+00 -1.074597E+00                                                                                                                                                                                                                                                                                                                                                                                                                                                                                              
  3.750000E+02  1.250000E+02 -5.425000E+03  1.053828E-06  0.000000E+00  0.000000E+00 -1.053828E-06  6.142047E-09  0.000000E+00  0.000000E+00 -6.142047E-09  0.000000E+00  0.000000E+00  0.000000E+00  0.000000E+00  0.000000E+00  0.000000E+00  0.000000E+00  0.000000E+00  1.073135E+00  0.000000E+00  0.000000E+00 -1.073135E+00                                                                                                                                                                                                                                                                                                                                                                                                                                                                                              
  6.250000E+02  1.250000E+02 -5.425000E+03  1.052863E-06  0.000000E+00  0.000000E+00 -1.052863E-06  6.136254E-09  0.000000E+00  0.000000E+00 -6.136254E-09  0.000000E+00  0.000000E+00  0.000000E+00  0.000000E+00  0.000000E+00  0.000000E+00  0.000000E+00  0.000000E+00  1.071932E+00  0.000000E+00  0.000000E+00 -1.071932E+00                                                                                                                                                                                                                                                                                                                                                                                                                                                                                              
  7.600000E+02  1.250000E+02 -5.425000E+03  1.053098E-06  0.000000E+00  0.000000E+00 -1.053098E-06  6.137630E-09  0.000000E+00  0.000000E+00 -6.137630E-09  0.000000E+00  0.000000E+00  0.000000E+00  0.000000E+00  0.000000E+00  0.000000E+00  0.000000E+00  0.000000E+00  1.072181E+00  0.000000E+00  0.000000E+00 -1.072181E+00                                                                                                                                                                                                                                                                                                                                                                                                                                                                                              
  7.800000E+02  1.250000E+02 -5.425000E+03  1.053145E-06  0.000000E+00  0.000000E+00 -1.053145E-06  6.137907E-09  0.000000E+00  0.000000E+00 -6.137907E-09  0.000000E+00  0.000000E+00  0.000000E+00  0.000000E+00  0.000000E+00  0.000000E+00  0.000000E+00  0.000000E+00  1.072237E+00  0.000000E+00  0.000000E+00 -1.072237E+00                                                                                                                                                                                                                                                                                                                                                                                                                                                                                              
  8.000000E+02  1.250000E+02 -5.425000E+03  1.053204E-06  0.000000E+00  0.000000E+00 -1.053204E-06  6.138272E-09  0.000000E+00  0.000000E+00 -6.138272E-09  0.000000E+00  0.000000E+00  0.000000E+00  0.000000E+00  0.000000E+00  0.000000E+00  0.000000E+00  0.000000E+00  1.072320E+00  0.000000E+00  0.000000E+00 -1.072320E+00                                                                                                                                                                                                                                                                                                                                                                                                                                                                                              
  9.350000E+02  1.250000E+02 -5.425000E+03  1.053674E-06  0.000000E+00  0.000000E+00 -1.053674E-06  6.141167E-09  0.000000E+00  0.000000E+00 -6.141167E-09  0.000000E+00  0.000000E+00  0.000000E+00  0.000000E+00  0.000000E+00  0.000000E+00  0.000000E+00  0.000000E+00  1.072991E+00  0.000000E+00  0.000000E+00 -1.072991E+00                                                                                                                                                                                                                                                                                                                                                                                                                                                                                              
  1.185000E+03  1.250000E+02 -5.425000E+03  1.055249E-06  0.000000E+00  0.000000E+00 -1.055249E-06  6.150396E-09  0.000000E+00  0.000000E+00 -6.150396E-09  0.000000E+00  0.000000E+00  0.000000E+00  0.000000E+00  0.000000E+00  0.000000E+00  0.000000E+00  0.000000E+00  1.074682E+00  0.000000E+00  0.000000E+00 -1.074682E+00                                                                                                                                                                                                                                                                                                                                                                                                                                                                                              
  1.435000E+03  1.250000E+02 -5.425000E+03  1.057078E-06  0.000000E+00  0.000000E+00 -1.057078E-06  6.161136E-09  0.000000E+00  0.000000E+00 -6.161136E-09  0.000000E+00  0.000000E+00  0.000000E+00  0.000000E+00  0.000000E+00  0.000000E+00  0.000000E+00  0.000000E+00  1.076669E+00  0.000000E+00  0.000000E+00 -1.076669E+00                                                                                                                                                                                                                                                                                                                                                                                                                                                                                              
  1.250000E+02  1.250000E+02 -5.225000E+03  2.117460E-06  9.936849E-10 -2.175784E-12 -2.117460E-06  1.220865E-08  5.741120E-12 -1.257109E-14 -1.220865E-08  0.000000E+00  0.000000E+00  0.000000E+00  0.000000E+00  0.000000E+00  0.000000E+00  0.000000E+00  0.000000E+00  2.082081E+00  1.012036E-03 -2.215966E-06 -2.082081E+00                                                                                                                                                                                                                                                                                                                                                                                                                                                                                              
  3.750000E+02  1.250000E+02 -5.225000E+03  2.113758E-06  1.712094E-09 -6.521089E-12 -2.113757E-06  1.218570E-08  9.891600E-12 -3.767560E-14 -1.218570E-08  0.000000E+00  0.000000E+00  0.000000E+00  0.000000E+00  0.000000E+00  0.000000E+00  0.000000E+00  0.000000E+00  2.076387E+00  1.743607E-03 -6.640558E-06 -2.076386E+00                                                                                                                                                                                                                                                                                                                                                                                                                                                                                              
  6.250000E+02  1.250000E+02 -5.225000E+03  2.111157E-06  3.710319E-10 -1.376710E-11 -2.111157E-06  1.216902E-08  2.143626E-12 -7.953480E-14 -1.216902E-08  0.000000E+00  0.000000E+00  0.000000E+00  0.000000E+00  0.000000E+00  0.000000E+00  0.000000E+00  0.000000E+00  2.071793E+00  3.778993E-04 -1.401644E-05 -2.071793E+00                                                                                                                                                                                                                                                                                                                                                                                                                                                                                              
  7.600000E+02  1.250000E+02 -5.225000E+03  2.111576E-06 -7.828095E-10 -1.882092E-11 -2.111575E-06  1.217157E-08 -4.522429E-12 -1.087318E-13 -1.217157E-08  0.000000E+00  0.000000E+00  0.000000E+00  0.000000E+00  0.000000E+00  0.000000E+00  0.000000E+00  0.000000E+00  2.072379E+00 -7.969982E-04 -1.916196E-05 -2.072379E+00                                                                                                                                                                                                                                                                                                                                                                                                                                                                                              
  7.800000E+02  1.250000E+02 -5.225000E+03  2.111677E-06 -9.577740E-10 -1.958754E-11 -2.111677E-06  1.217222E-08 -5.533249E-12 -1.131609E-13 -1.217222E-08  0.000000E+00  0.000000E+00  0.000000E+00  0.000000E+00  0.000000E+00  0.000000E+00  0.000000E+00  0.000000E+00  2.072560E+00 -9.751490E-04 -1.994264E-05 -2.072559E+00                                                                                                                                                                                                                                                                                                                                                                                                                                                                                              
  8.000000E+02  1.250000E+02 -5.225000E+03  2.111831E-06 -1.127926E-09 -2.037206E-11 -2.111830E-06  1.217326E-08 -6.516359E-12 -1.176940E-13 -1.217326E-08  0.000000E+00  0.000000E+00  0.000000E+00  0.000000E+00  0.000000E+00  0.000000E+00  0.000000E+00  0.000000E+00  2.072880E+00 -1.148509E-03 -2.074182E-05 -2.072880E+00                                                                                                                                                                                                                                                                                                                                                                                                                                                                                              
  9.350000E+02  1.250000E+02 -5.225000E+03  2.113084E-06 -1.852762E-09 -2.578744E-11 -2.113083E-06  1.218170E-08 -1.070434E-11 -1.489875E-13 -1.218169E-08  0.000000E+00  0.000000E+00  0.000000E+00  0.000000E+00  0.000000E+00  0.000000E+00  0.000000E+00  0.000000E+00  2.075517E+00 -1.886832E-03 -2.626018E-05 -2.075516E+00                                                                                                                                                                                                                                                                                                                                                                                                                                                                                              
  1.185000E+03  1.250000E+02 -5.225000E+03  2.116562E-06 -2.690088E-09 -3.976066E-11 -2.116560E-06  1.220289E-08 -1.554238E-11 -2.297227E-13 -1.220288E-08  0.000000E+00  0.000000E+00  0.000000E+00  0.000000E+00  0.000000E+00  0.000000E+00  0.000000E+00  0.000000E+00  2.080431E+00 -2.739796E-03 -4.049285E-05 -2.080430E+00                                                                                                                                                                                                                                                                                                                                                                                                                                                                                              
  1.435000E+03  1.250000E+02 -5.225000E+03  2.121692E-06 -1.442910E-09 -5.437168E-11 -2.121692E-06  1.223409E-08 -8.336722E-12 -3.141492E-13 -1.223409E-08  0.000000E+00  0.000000E+00  0.000000E+00  0.000000E+00  0.000000E+00  0.000000E+00  0.000000E+00  0.000000E+00  2.087646E+00 -1.469651E-03 -5.537933E-05 -2.087646E+00                                                                                                                                                                                                                                                                                                                                                                                                                                                                                              
  1.250000E+02  1.250000E+02 -4.975000E+03  2.141629E-06  2.534249E-09  4.992039E-12 -2.141627E-06  1.201020E-08  1.431475E-11  2.820475E-14 -1.201019E-08  0.000000E+00  0.000000E+00  0.000000E+00  0.000000E+00  0.000000E+00  0.000000E+00  0.000000E+00  0.000000E+00  1.850327E+00  2.403369E-03  4.734228E-06 -1.850325E+00                                                                                                                                                                                                                                                                                                                                                                                                                                                                                              
  3.750000E+02  1.250000E+02 -4.975000E+03  2.133659E-06  4.089054E-09 -6.215734E-12 -2.133655E-06  1.195779E-08  2.309292E-11 -3.510143E-14 -1.195777E-08  0.000000E+00  0.000000E+00  0.000000E+00  0.000000E+00  0.000000E+00  0.000000E+00  0.000000E+00  0.000000E+00  1.833808E+00  3.875033E-03 -5.883337E-06 -1.833804E+00                                                                                                                                                                                                                                                                                                                                                                                                                                                                                              
  6.250000E+02  1.250000E+02 -4.975000E+03  2.129536E-06  1.020679E-09 -1.973432E-11 -2.129536E-06  1.192807E-08  5.763203E-12 -1.113916E-13 -1.192807E-08  0.000000E+00  0.000000E+00  0.000000E+00  0.000000E+00  0.000000E+00  0.000000E+00  0.000000E+00  0.000000E+00  1.822525E+00  9.669468E-04 -1.864476E-05 -1.822525E+00                                                                                                                                                                                                                                                                                                                                                                                                                                                                                              
  7.600000E+02  1.250000E+02 -4.975000E+03  2.129471E-06 -1.267128E-09 -2.846360E-11 -2.129470E-06  1.192830E-08 -7.152645E-12 -1.606712E-13 -1.192829E-08  0.000000E+00  0.000000E+00  0.000000E+00  0.000000E+00  0.000000E+00  0.000000E+00  0.000000E+00  0.000000E+00  1.823140E+00 -1.197410E-03 -2.689653E-05 -1.823139E+00                                                                                                                                                                                                                                                                                                                                                                                                                                                                                              
  7.800000E+02  1.250000E+02 -4.975000E+03  2.129571E-06 -1.664848E-09 -2.979314E-11 -2.129570E-06  1.192910E-08 -9.397951E-12 -1.681792E-13 -1.192910E-08  0.000000E+00  0.000000E+00  0.000000E+00  0.000000E+00  0.000000E+00  0.000000E+00  0.000000E+00  0.000000E+00  1.823506E+00 -1.573426E-03 -2.815488E-05 -1.823505E+00                                                                                                                                                                                                                                                                                                                                                                                                                                                                                              
  8.000000E+02  1.250000E+02 -4.975000E+03  2.129852E-06 -2.053559E-09 -3.116119E-11 -2.129851E-06  1.193118E-08 -1.159341E-11 -1.759083E-13 -1.193117E-08  0.000000E+00  0.000000E+00  0.000000E+00  0.000000E+00  0.000000E+00  0.000000E+00  0.000000E+00  0.000000E+00  1.824312E+00 -1.942216E-03 -2.945209E-05 -1.824311E+00                                                                                                                                                                                                                                                                                                                                                                                                                                                                                              
  9.350000E+02  1.250000E+02 -4.975000E+03  2.132284E-06 -3.590529E-09 -4.062950E-11 -2.132281E-06  1.194899E-08 -2.027658E-11 -2.294294E-13 -1.194897E-08  0.000000E+00  0.000000E+00  0.000000E+00  0.000000E+00  0.000000E+00  0.000000E+00  0.000000E+00  0.000000E+00  1.831148E+00 -3.401047E-03 -3.844808E-05 -1.831145E+00                                                                                                                                                                                                                                                                                                                                                                                                                                                                                              
  1.185000E+03  1.250000E+02 -4.975000E+03  2.135845E-06 -6.238181E-09 -6.874386E-11 -2.135835E-06  1.197440E-08 -3.524144E-11 -3.883257E-13 -1.197435E-08  0.000000E+00  0.000000E+00  0.000000E+00  0.000000E+00  0.000000E+00  0.000000E+00  0.000000E+00  0.000000E+00  1.840823E+00 -5.919024E-03 -6.514541E-05 -1.840813E+00                                                                                                                                                                                                                                                                                                                                                                                                                                                                                              
  1.435000E+03  1.250000E+02 -4.975000E+03  2.146996E-06 -3.769365E-09 -1.072129E-10 -2.146993E-06  1.204571E-08 -2.129799E-11 -6.059509E-13 -1.204569E-08  0.000000E+00  0.000000E+00  0.000000E+00  0.000000E+00  0.000000E+00  0.000000E+00  0.000000E+00  0.000000E+00  1.861724E+00 -3.579460E-03 -1.018137E-04 -1.861720E+00                                                                                                                                                                                                                                                                                                                                                                                                                                                                                              
  1.250000E+02  1.250000E+02 -4.725000E+03  2.189064E-06  1.408457E-09  1.874164E-11 -2.189064E-06  1.171987E-08  7.599119E-12  1.012064E-13 -1.171987E-08  0.000000E+00  0.000000E+00  0.000000E+00  0.000000E+00  0.000000E+00  0.000000E+00  0.000000E+00  0.000000E+00  1.292297E+00  1.099906E-03  1.463591E-05 -1.292296E+00                                                                                                                                                                                                                                                                                                                                                                                                                                                                                              
  3.750000E+02  1.250000E+02 -4.725000E+03  2.173618E-06  5.073118E-10 -1.453871E-12 -2.173618E-06  1.162450E-08  2.744137E-12 -7.837689E-15 -1.162450E-08  0.000000E+00  0.000000E+00  0.000000E+00  0.000000E+00  0.000000E+00  0.000000E+00  0.000000E+00  0.000000E+00  1.270540E+00  4.078684E-04 -1.124589E-06 -1.270540E+00                                                                                                                                                                                                                                                                                                                                                                                                                                                                                              
  6.250000E+02  1.250000E+02 -4.725000E+03  2.172024E-06 -2.048630E-10 -5.149700E-12 -2.172024E-06  1.160666E-08 -1.105986E-12 -2.772616E-14 -1.160666E-08  0.000000E+00  0.000000E+00  0.000000E+00  0.000000E+00  0.000000E+00  0.000000E+00  0.000000E+00  0.000000E+00  1.262977E+00 -1.573253E-04 -3.954769E-06 -1.262977E+00                                                                                                                                                                                                                                                                                                                                                                                                                                                                                              
  7.600000E+02  1.250000E+02 -4.725000E+03  2.171975E-06  1.552574E-09 -8.376764E-12 -2.171975E-06  1.160704E-08  8.359869E-12 -4.510537E-14 -1.160704E-08  0.000000E+00  0.000000E+00  0.000000E+00  0.000000E+00  0.000000E+00  0.000000E+00  0.000000E+00  0.000000E+00  1.263334E+00  1.192679E-03 -6.436724E-06 -1.263333E+00                                                                                                                                                                                                                                                                                                                                                                                                                                                                                              
  7.800000E+02  1.250000E+02 -4.725000E+03  2.172021E-06  1.867555E-09 -8.895491E-12 -2.172020E-06  1.160760E-08  1.005659E-11 -4.790063E-14 -1.160760E-08  0.000000E+00  0.000000E+00  0.000000E+00  0.000000E+00  0.000000E+00  0.000000E+00  0.000000E+00  0.000000E+00  1.263577E+00  1.435208E-03 -6.837048E-06 -1.263576E+00                                                                                                                                                                                                                                                                                                                                                                                                                                                                                              
  8.000000E+02  1.250000E+02 -4.725000E+03  2.172154E-06  2.155241E-09 -9.461690E-12 -2.172152E-06  1.160899E-08  1.160883E-11 -5.095417E-14 -1.160898E-08  0.000000E+00  0.000000E+00  0.000000E+00  0.000000E+00  0.000000E+00  0.000000E+00  0.000000E+00  0.000000E+00  1.264125E+00  1.656939E-03 -7.276005E-06 -1.264124E+00                                                                                                                                                                                                                                                                                                                                                                                                                                                                                              
  9.350000E+02  1.250000E+02 -4.725000E+03  2.173302E-06  1.477055E-09 -1.368145E-11 -2.173302E-06  1.162085E-08  7.959236E-12 -7.373566E-14 -1.162084E-08  0.000000E+00  0.000000E+00  0.000000E+00  0.000000E+00  0.000000E+00  0.000000E+00  0.000000E+00  0.000000E+00  1.268795E+00  1.136946E-03 -1.056691E-05 -1.268795E+00                                                                                                                                                                                                                                                                                                                                                                                                                                                                                              
  1.185000E+03  1.250000E+02 -4.725000E+03  2.173908E-06 -3.263466E-09 -3.074830E-11 -2.173905E-06  1.163201E-08 -1.762778E-11 -1.659008E-13 -1.163200E-08  0.000000E+00  0.000000E+00  0.000000E+00  0.000000E+00  0.000000E+00  0.000000E+00  0.000000E+00  0.000000E+00  1.274922E+00 -2.569613E-03 -2.389711E-05 -1.274919E+00                                                                                                                                                                                                                                                                                                                                                                                                                                                                                              