Title="TOUGHREACT V3.30-OMP flowvector.tec: Liq & Gas Fluxes (kg/s/m^2), Pore Velocities (m/s), & Heat Fluxes (J/s/m2)"                                                                                                                                                                                                                                                                                                                                                                                                                                                                                                                                                                                                                                                                                                         
Variables= "X(m)"     "Y(m)"      "Z(m)"     "FluxLiq"   "FluxLiq_X"   "FluxLiq_Y"   "FluxLiq_Z"   "PorVelLiq"  "PorVelLiqX"  "PorVelLiqY"  "PorVelLiqZ"     "FluxGas"   "FluxGas_X"   "FluxGas_Y"   "FluxGas_Z"   "PorVelGas"  "PorVelGasX"  "PorVelGasY"  "PorVelGasZ"    "HeatFlux"  "HeatFlux_X"  "HeatFlux_Y"  "HeatFlux_Z"                                                                                                                                                                                                                                                                                                                                                                                                                                                                                                
Zone T= "8.33000000E+10 sec" I=     9 J=    10 K=    23 F=Point
  1.250000E+02  1.250000E+02 -5.425000E+03  9.931602E-07  0.000000E+00  0.000000E+00 -9.931602E-07  5.725867E-09  0.000000E+00  0.000000E+00 -5.725867E-09  0.000000E+00  0.000000E+00  0.000000E+00  0.000000E+00  0.000000E+00  0.000000E+00  0.000000E+00  0.000000E+00  9.324235E-01  0.000000E+00  0.000000E+00 -9.324235E-01                                                                                                                                                                                                                                                                                                                                                                                                                                                                                              
  3.750000E+02  1.250000E+02 -5.425000E+03  9.917952E-07  0.000000E+00  0.000000E+00 -9.917952E-07  5.716913E-09  0.000000E+00  0.000000E+00 -5.716913E-09  0.000000E+00  0.000000E+00  0.000000E+00  0.000000E+00  0.000000E+00  0.000000E+00  0.000000E+00  0.000000E+00  9.297163E-01  0.000000E+00  0.000000E+00 -9.297163E-01                                                                                                                                                                                                                                                                                                                                                                                                                                                                                              
  6.250000E+02  1.250000E+02 -5.425000E+03  9.906762E-07  0.000000E+00  0.000000E+00 -9.906762E-07  5.709522E-09  0.000000E+00  0.000000E+00 -5.709522E-09  0.000000E+00  0.000000E+00  0.000000E+00  0.000000E+00  0.000000E+00  0.000000E+00  0.000000E+00  0.000000E+00  9.274291E-01  0.000000E+00  0.000000E+00 -9.274291E-01                                                                                                                                                                                                                                                                                                                                                                                                                                                                                              
  7.600000E+02  1.250000E+02 -5.425000E+03  9.908372E-07  0.000000E+00  0.000000E+00 -9.908372E-07  5.710530E-09  0.000000E+00  0.000000E+00 -5.710530E-09  0.000000E+00  0.000000E+00  0.000000E+00  0.000000E+00  0.000000E+00  0.000000E+00  0.000000E+00  0.000000E+00  9.276865E-01  0.000000E+00  0.000000E+00 -9.276865E-01                                                                                                                                                                                                                                                                                                                                                                                                                                                                                              
  7.800000E+02  1.250000E+02 -5.425000E+03  9.908812E-07  0.000000E+00  0.000000E+00 -9.908812E-07  5.710819E-09  0.000000E+00  0.000000E+00 -5.710819E-09  0.000000E+00  0.000000E+00  0.000000E+00  0.000000E+00  0.000000E+00  0.000000E+00  0.000000E+00  0.000000E+00  9.277746E-01  0.000000E+00  0.000000E+00 -9.277746E-01                                                                                                                                                                                                                                                                                                                                                                                                                                                                                              
  8.000000E+02  1.250000E+02 -5.425000E+03  9.909550E-07  0.000000E+00  0.000000E+00 -9.909550E-07  5.711319E-09  0.000000E+00  0.000000E+00 -5.711319E-09  0.000000E+00  0.000000E+00  0.000000E+00  0.000000E+00  0.000000E+00  0.000000E+00  0.000000E+00  0.000000E+00  9.279425E-01  0.000000E+00  0.000000E+00 -9.279425E-01                                                                                                                                                                                                                                                                                                                                                                                                                                                                                              
  9.350000E+02  1.250000E+02 -5.425000E+03  9.915489E-07  0.000000E+00  0.000000E+00 -9.915489E-07  5.715354E-09  0.000000E+00  0.000000E+00 -5.715354E-09  0.000000E+00  0.000000E+00  0.000000E+00  0.000000E+00  0.000000E+00  0.000000E+00  0.000000E+00  0.000000E+00  9.293005E-01  0.000000E+00  0.000000E+00 -9.293005E-01                                                                                                                                                                                                                                                                                                                                                                                                                                                                                              
  1.185000E+03  1.250000E+02 -5.425000E+03  9.927055E-07  0.000000E+00  0.000000E+00 -9.927055E-07  5.722772E-09  0.000000E+00  0.000000E+00 -5.722772E-09  0.000000E+00  0.000000E+00  0.000000E+00  0.000000E+00  0.000000E+00  0.000000E+00  0.000000E+00  0.000000E+00  9.313771E-01  0.000000E+00  0.000000E+00 -9.313771E-01                                                                                                                                                                                                                                                                                                                                                                                                                                                                                              
  1.435000E+03  1.250000E+02 -5.425000E+03  9.943123E-07  0.000000E+00  0.000000E+00 -9.943123E-07  5.733262E-09  0.000000E+00  0.000000E+00 -5.733262E-09  0.000000E+00  0.000000E+00  0.000000E+00  0.000000E+00  0.000000E+00  0.000000E+00  0.000000E+00  0.000000E+00  9.344970E-01  0.000000E+00  0.000000E+00 -9.344970E-01                                                                                                                                                                                                                                                                                                                                                                                                                                                                                              
  1.250000E+02  1.250000E+02 -5.225000E+03  1.998011E-06  5.545787E-10  1.913663E-12 -1.998011E-06  1.128826E-08  3.133684E-12  1.081541E-14 -1.128826E-08  0.000000E+00  0.000000E+00  0.000000E+00  0.000000E+00  0.000000E+00  0.000000E+00  0.000000E+00  0.000000E+00  1.733987E+00  5.206634E-04  1.796633E-06 -1.733987E+00                                                                                                                                                                                                                                                                                                                                                                                                                                                                                              
  3.750000E+02  1.250000E+02 -5.225000E+03  1.994693E-06  9.794601E-10  8.744683E-13 -1.994693E-06  1.126543E-08  5.533648E-12  4.940323E-15 -1.126543E-08  0.000000E+00  0.000000E+00  0.000000E+00  0.000000E+00  0.000000E+00  0.000000E+00  0.000000E+00  0.000000E+00  1.726592E+00  9.189504E-04  8.197331E-07 -1.726592E+00                                                                                                                                                                                                                                                                                                                                                                                                                                                                                              
  6.250000E+02  1.250000E+02 -5.225000E+03  1.992062E-06  2.594965E-10 -8.527242E-13 -1.992062E-06  1.124715E-08  1.465917E-12 -4.815881E-15 -1.124715E-08  0.000000E+00  0.000000E+00  0.000000E+00  0.000000E+00  0.000000E+00  0.000000E+00  0.000000E+00  0.000000E+00  1.720594E+00  2.434429E-04 -7.982857E-07 -1.720594E+00                                                                                                                                                                                                                                                                                                                                                                                                                                                                                              
  7.600000E+02  1.250000E+02 -5.225000E+03  1.992334E-06 -3.813438E-10 -1.759567E-12 -1.992334E-06  1.124899E-08 -2.153748E-12 -9.937686E-15 -1.124899E-08  0.000000E+00  0.000000E+00  0.000000E+00  0.000000E+00  0.000000E+00  0.000000E+00  0.000000E+00  0.000000E+00  1.721165E+00 -3.570492E-04 -1.647426E-06 -1.721165E+00                                                                                                                                                                                                                                                                                                                                                                                                                                                                                              
  7.800000E+02  1.250000E+02 -5.225000E+03  1.992430E-06 -4.816315E-10 -1.895552E-12 -1.992430E-06  1.124966E-08 -2.720204E-12 -1.070584E-14 -1.124966E-08  0.000000E+00  0.000000E+00  0.000000E+00  0.000000E+00  0.000000E+00  0.000000E+00  0.000000E+00  0.000000E+00  1.721387E+00 -4.509841E-04 -1.774834E-06 -1.721386E+00                                                                                                                                                                                                                                                                                                                                                                                                                                                                                              
  8.000000E+02  1.250000E+02 -5.225000E+03  1.992613E-06 -5.778643E-10 -2.033727E-12 -1.992613E-06  1.125096E-08 -3.263954E-12 -1.148654E-14 -1.125096E-08  0.000000E+00  0.000000E+00  0.000000E+00  0.000000E+00  0.000000E+00  0.000000E+00  0.000000E+00  0.000000E+00  1.721828E+00 -5.413717E-04 -1.904413E-06 -1.721828E+00                                                                                                                                                                                                                                                                                                                                                                                                                                                                                              
  9.350000E+02  1.250000E+02 -5.225000E+03  1.994100E-06 -8.666236E-10 -2.985342E-12 -1.994100E-06  1.126152E-08 -4.895971E-12 -1.686491E-14 -1.126151E-08  0.000000E+00  0.000000E+00  0.000000E+00  0.000000E+00  0.000000E+00  0.000000E+00  0.000000E+00  0.000000E+00  1.725431E+00 -8.127722E-04 -2.797933E-06 -1.725431E+00                                                                                                                                                                                                                                                                                                                                                                                                                                                                                              
  1.185000E+03  1.250000E+02 -5.225000E+03  1.996458E-06 -1.236152E-09 -6.225804E-12 -1.996458E-06  1.127770E-08 -6.985553E-12 -3.518042E-14 -1.127769E-08  0.000000E+00  0.000000E+00  0.000000E+00  0.000000E+00  0.000000E+00  0.000000E+00  0.000000E+00  0.000000E+00  1.730612E+00 -1.160890E-03 -5.841218E-06 -1.730611E+00                                                                                                                                                                                                                                                                                                                                                                                                                                                                                              
  1.435000E+03  1.250000E+02 -5.225000E+03  2.000357E-06 -6.817206E-10 -1.088644E-11 -2.000357E-06  1.130443E-08 -3.853032E-12 -6.154314E-14 -1.130443E-08  0.000000E+00  0.000000E+00  0.000000E+00  0.000000E+00  0.000000E+00  0.000000E+00  0.000000E+00  0.000000E+00  1.739227E+00 -6.407100E-04 -1.023173E-05 -1.739227E+00                                                                                                                                                                                                                                                                                                                                                                                                                                                                                              
  1.250000E+02  1.250000E+02 -4.975000E+03  2.025397E-06  5.202027E-10  3.117691E-12 -2.025397E-06  1.097029E-08  2.828550E-12  1.695850E-14 -1.097029E-08  0.000000E+00  0.000000E+00  0.000000E+00  0.000000E+00  0.000000E+00  0.000000E+00  0.000000E+00  0.000000E+00  1.398368E+00  4.149628E-04  2.486965E-06 -1.398368E+00                                                                                                                                                                                                                                                                                                                                                                                                                                                                                              
  3.750000E+02  1.250000E+02 -4.975000E+03  2.020766E-06  8.902060E-10  2.109249E-12 -2.020766E-06  1.093846E-08  4.839092E-12  1.146479E-14 -1.093846E-08  0.000000E+00  0.000000E+00  0.000000E+00  0.000000E+00  0.000000E+00  0.000000E+00  0.000000E+00  0.000000E+00  1.388528E+00  7.089575E-04  1.675953E-06 -1.388527E+00                                                                                                                                                                                                                                                                                                                                                                                                                                                                                              
  6.250000E+02  1.250000E+02 -4.975000E+03  2.017371E-06  2.759345E-10  8.826947E-13 -2.017370E-06  1.091472E-08  1.499517E-12  4.795078E-15 -1.091472E-08  0.000000E+00  0.000000E+00  0.000000E+00  0.000000E+00  0.000000E+00  0.000000E+00  0.000000E+00  0.000000E+00  1.381102E+00  2.194647E-04  6.991535E-07 -1.381102E+00                                                                                                                                                                                                                                                                                                                                                                                                                                                                                              
  7.600000E+02  1.250000E+02 -4.975000E+03  2.017396E-06 -2.414386E-10  5.108931E-13 -2.017396E-06  1.091534E-08 -1.311634E-12  2.775479E-15 -1.091534E-08  0.000000E+00  0.000000E+00  0.000000E+00  0.000000E+00  0.000000E+00  0.000000E+00  0.000000E+00  0.000000E+00  1.381542E+00 -1.913035E-04  4.047766E-07 -1.381542E+00                                                                                                                                                                                                                                                                                                                                                                                                                                                                                              
  7.800000E+02  1.250000E+02 -4.975000E+03  2.017501E-06 -3.481730E-10  4.549069E-13 -2.017501E-06  1.091610E-08 -1.891539E-12  2.471382E-15 -1.091610E-08  0.000000E+00  0.000000E+00  0.000000E+00  0.000000E+00  0.000000E+00  0.000000E+00  0.000000E+00  0.000000E+00  1.381796E+00 -2.759245E-04  3.604611E-07 -1.381796E+00                                                                                                                                                                                                                                                                                                                                                                                                                                                                                              
  8.000000E+02  1.250000E+02 -4.975000E+03  2.017771E-06 -4.510951E-10  3.998025E-13 -2.017771E-06  1.091796E-08 -2.450989E-12  2.172110E-15 -1.091796E-08  0.000000E+00  0.000000E+00  0.000000E+00  0.000000E+00  0.000000E+00  0.000000E+00  0.000000E+00  0.000000E+00  1.382353E+00 -3.579090E-04  3.168723E-07 -1.382353E+00                                                                                                                                                                                                                                                                                                                                                                                                                                                                                              
  9.350000E+02  1.250000E+02 -4.975000E+03  2.020095E-06 -6.212162E-10  3.510276E-14 -2.020095E-06  1.093382E-08 -3.376480E-12  1.907799E-16 -1.093382E-08  0.000000E+00  0.000000E+00  0.000000E+00  0.000000E+00  0.000000E+00  0.000000E+00  0.000000E+00  0.000000E+00  1.387040E+00 -4.941051E-04  2.787526E-08 -1.387040E+00                                                                                                                                                                                                                                                                                                                                                                                                                                                                                              
  1.185000E+03  1.250000E+02 -4.975000E+03  2.022393E-06 -1.008140E-09 -2.020351E-12 -2.022393E-06  1.095085E-08 -5.482779E-12 -1.098589E-14 -1.095085E-08  0.000000E+00  0.000000E+00  0.000000E+00  0.000000E+00  0.000000E+00  0.000000E+00  0.000000E+00  0.000000E+00  1.392990E+00 -8.050527E-04 -1.608728E-06 -1.392990E+00                                                                                                                                                                                                                                                                                                                                                                                                                                                                                              
  1.435000E+03  1.250000E+02 -4.975000E+03  2.027930E-06 -6.372156E-10 -6.605113E-12 -2.027930E-06  1.098878E-08 -3.466358E-12 -3.594682E-14 -1.098878E-08  0.000000E+00  0.000000E+00  0.000000E+00  0.000000E+00  0.000000E+00  0.000000E+00  0.000000E+00  0.000000E+00  1.404738E+00 -5.097056E-04 -5.283667E-06 -1.404738E+00                                                                                                                                                                                                                                                                                                                                                                                                                                                                                              
  1.250000E+02  1.250000E+02 -4.725000E+03  2.050572E-06 -1.512771E-09 -2.743369E-12 -2.050571E-06  1.065046E-08 -7.835026E-12 -1.421318E-14 -1.065046E-08  0.000000E+00  0.000000E+00  0.000000E+00  0.000000E+00  0.000000E+00  0.000000E+00  0.000000E+00  0.000000E+00  1.008823E+00 -8.793212E-04 -1.604266E-06 -1.008823E+00                                                                                                                                                                                                                                                                                                                                                                                                                                                                                              
  3.750000E+02  1.250000E+02 -4.725000E+03  2.046840E-06 -2.657924E-09 -4.885388E-13 -2.046838E-06  1.062538E-08 -1.376264E-11 -2.529401E-15 -1.062537E-08  0.000000E+00  0.000000E+00  0.000000E+00  0.000000E+00  0.000000E+00  0.000000E+00  0.000000E+00  0.000000E+00  1.003241E+00 -1.542006E-03 -2.839682E-07 -1.003240E+00                                                                                                                                                                                                                                                                                                                                                                                                                                                                                              
  6.250000E+02  1.250000E+02 -4.725000E+03  2.044138E-06 -6.704522E-10  3.709397E-12 -2.044137E-06  1.060707E-08 -3.471010E-12  1.919604E-14 -1.060707E-08  0.000000E+00  0.000000E+00  0.000000E+00  0.000000E+00  0.000000E+00  0.000000E+00  0.000000E+00  0.000000E+00  9.991981E-01 -3.879818E-04  2.146579E-06 -9.991981E-01                                                                                                                                                                                                                                                                                                                                                                                                                                                                                              
  7.600000E+02  1.250000E+02 -4.725000E+03  2.044310E-06  1.105197E-09  5.490897E-12 -2.044310E-06  1.060825E-08  5.719543E-12  2.841622E-14 -1.060825E-08  0.000000E+00  0.000000E+00  0.000000E+00  0.000000E+00  0.000000E+00  0.000000E+00  0.000000E+00  0.000000E+00  9.994283E-01  6.396721E-04  3.178462E-06 -9.994281E-01                                                                                                                                                                                                                                                                                                                                                                                                                                                                                              
  7.800000E+02  1.250000E+02 -4.725000E+03  2.044402E-06  1.415157E-09  5.757345E-12 -2.044402E-06  1.060888E-08  7.323818E-12  2.979563E-14 -1.060887E-08  0.000000E+00  0.000000E+00  0.000000E+00  0.000000E+00  0.000000E+00  0.000000E+00  0.000000E+00  0.000000E+00  9.995645E-01  8.192480E-04  3.333208E-06 -9.995642E-01                                                                                                                                                                                                                                                                                                                                                                                                                                                                                              
  8.000000E+02  1.250000E+02 -4.725000E+03  2.044595E-06  1.711833E-09  6.027168E-12 -2.044594E-06  1.061019E-08  8.860113E-12  3.119311E-14 -1.061019E-08  0.000000E+00  0.000000E+00  0.000000E+00  0.000000E+00  0.000000E+00  0.000000E+00  0.000000E+00  0.000000E+00  9.998600E-01  9.912366E-04  3.490546E-06 -9.998595E-01                                                                                                                                                                                                                                                                                                                                                                                                                                                                                              
  9.350000E+02  1.250000E+02 -4.725000E+03  2.046251E-06  2.315647E-09  7.833628E-12 -2.046250E-06  1.062147E-08  1.198882E-11  4.055436E-14 -1.062147E-08  0.000000E+00  0.000000E+00  0.000000E+00  0.000000E+00  0.000000E+00  0.000000E+00  0.000000E+00  0.000000E+00  1.002393E+00  1.343276E-03  4.549157E-06 -1.002393E+00                                                                                                                                                                                                                                                                                                                                                                                                                                                                                              
  1.185000E+03  1.250000E+02 -4.725000E+03  2.048604E-06  3.223223E-09  1.496140E-11 -2.048601E-06  1.063722E-08  1.669584E-11  7.748641E-14 -1.063721E-08  0.000000E+00  0.000000E+00  0.000000E+00  0.000000E+00  0.000000E+00  0.000000E+00  0.000000E+00  0.000000E+00  1.005743E+00  1.875775E-03  8.720858E-06 -1.005741E+00                                                                                                                                                                                                                                                                                                                                                                                                                                                                                              