Title="TOUGHREACT V3.30-OMP flowvector.tec: Liq & Gas Fluxes (kg/s/m^2), Pore Velocities (m/s), & Heat Fluxes (J/s/m2)"                                                                                                                                                                                                                                                                                                                                                                                                                                                                                                                                                                                                                                                                                                         
Variables= "X(m)"     "Y(m)"      "Z(m)"     "FluxLiq"   "FluxLiq_X"   "FluxLiq_Y"   "FluxLiq_Z"   "PorVelLiq"  "PorVelLiqX"  "PorVelLiqY"  "PorVelLiqZ"     "FluxGas"   "FluxGas_X"   "FluxGas_Y"   "FluxGas_Z"   "PorVelGas"  "PorVelGasX"  "PorVelGasY"  "PorVelGasZ"    "HeatFlux"  "HeatFlux_X"  "HeatFlux_Y"  "HeatFlux_Z"                                                                                                                                                                                                                                                                                                                                                                                                                                                                                                
Zone T= "5.00000000E+10 sec" I=     9 J=    10 K=    23 F=Point
  1.250000E+02  1.250000E+02 -5.425000E+03  1.032942E-06  0.000000E+00  0.000000E+00 -1.032942E-06  6.000246E-09  0.000000E+00  0.000000E+00 -6.000246E-09  0.000000E+00  0.000000E+00  0.000000E+00  0.000000E+00  0.000000E+00  0.000000E+00  0.000000E+00  0.000000E+00  1.027160E+00  0.000000E+00  0.000000E+00 -1.027160E+00                                                                                                                                                                                                                                                                                                                                                                                                                                                                                              
  3.750000E+02  1.250000E+02 -5.425000E+03  1.031809E-06  0.000000E+00  0.000000E+00 -1.031809E-06  5.993124E-09  0.000000E+00  0.000000E+00 -5.993124E-09  0.000000E+00  0.000000E+00  0.000000E+00  0.000000E+00  0.000000E+00  0.000000E+00  0.000000E+00  0.000000E+00  1.025354E+00  0.000000E+00  0.000000E+00 -1.025354E+00                                                                                                                                                                                                                                                                                                                                                                                                                                                                                              
  6.250000E+02  1.250000E+02 -5.425000E+03  1.030878E-06  0.000000E+00  0.000000E+00 -1.030878E-06  5.987189E-09  0.000000E+00  0.000000E+00 -5.987189E-09  0.000000E+00  0.000000E+00  0.000000E+00  0.000000E+00  0.000000E+00  0.000000E+00  0.000000E+00  0.000000E+00  1.023762E+00  0.000000E+00  0.000000E+00 -1.023762E+00                                                                                                                                                                                                                                                                                                                                                                                                                                                                                              
  7.600000E+02  1.250000E+02 -5.425000E+03  1.031059E-06  0.000000E+00  0.000000E+00 -1.031059E-06  5.988278E-09  0.000000E+00  0.000000E+00 -5.988278E-09  0.000000E+00  0.000000E+00  0.000000E+00  0.000000E+00  0.000000E+00  0.000000E+00  0.000000E+00  0.000000E+00  1.023993E+00  0.000000E+00  0.000000E+00 -1.023993E+00                                                                                                                                                                                                                                                                                                                                                                                                                                                                                              
  7.800000E+02  1.250000E+02 -5.425000E+03  1.031099E-06  0.000000E+00  0.000000E+00 -1.031099E-06  5.988533E-09  0.000000E+00  0.000000E+00 -5.988533E-09  0.000000E+00  0.000000E+00  0.000000E+00  0.000000E+00  0.000000E+00  0.000000E+00  0.000000E+00  0.000000E+00  1.024059E+00  0.000000E+00  0.000000E+00 -1.024059E+00                                                                                                                                                                                                                                                                                                                                                                                                                                                                                              
  8.000000E+02  1.250000E+02 -5.425000E+03  1.031158E-06  0.000000E+00  0.000000E+00 -1.031158E-06  5.988917E-09  0.000000E+00  0.000000E+00 -5.988917E-09  0.000000E+00  0.000000E+00  0.000000E+00  0.000000E+00  0.000000E+00  0.000000E+00  0.000000E+00  0.000000E+00  1.024174E+00  0.000000E+00  0.000000E+00 -1.024174E+00                                                                                                                                                                                                                                                                                                                                                                                                                                                                                              
  9.350000E+02  1.250000E+02 -5.425000E+03  1.031625E-06  0.000000E+00  0.000000E+00 -1.031625E-06  5.992004E-09  0.000000E+00  0.000000E+00 -5.992004E-09  0.000000E+00  0.000000E+00  0.000000E+00  0.000000E+00  0.000000E+00  0.000000E+00  0.000000E+00  0.000000E+00  1.025107E+00  0.000000E+00  0.000000E+00 -1.025107E+00                                                                                                                                                                                                                                                                                                                                                                                                                                                                                              
  1.185000E+03  1.250000E+02 -5.425000E+03  1.032764E-06  0.000000E+00  0.000000E+00 -1.032764E-06  5.998988E-09  0.000000E+00  0.000000E+00 -5.998988E-09  0.000000E+00  0.000000E+00  0.000000E+00  0.000000E+00  0.000000E+00  0.000000E+00  0.000000E+00  0.000000E+00  1.026708E+00  0.000000E+00  0.000000E+00 -1.026708E+00                                                                                                                                                                                                                                                                                                                                                                                                                                                                                              
  1.435000E+03  1.250000E+02 -5.425000E+03  1.034147E-06  0.000000E+00  0.000000E+00 -1.034147E-06  6.007588E-09  0.000000E+00  0.000000E+00 -6.007588E-09  0.000000E+00  0.000000E+00  0.000000E+00  0.000000E+00  0.000000E+00  0.000000E+00  0.000000E+00  0.000000E+00  1.028800E+00  0.000000E+00  0.000000E+00 -1.028800E+00                                                                                                                                                                                                                                                                                                                                                                                                                                                                                              
  1.250000E+02  1.250000E+02 -5.225000E+03  2.075160E-06  7.100293E-10  1.149529E-12 -2.075160E-06  1.188264E-08  4.074036E-12  6.596440E-15 -1.188264E-08  0.000000E+00  0.000000E+00  0.000000E+00  0.000000E+00  0.000000E+00  0.000000E+00  0.000000E+00  0.000000E+00  1.959404E+00  7.060546E-04  1.143094E-06 -1.959404E+00                                                                                                                                                                                                                                                                                                                                                                                                                                                                                              
  3.750000E+02  1.250000E+02 -5.225000E+03  2.072182E-06  1.258164E-09 -3.941358E-13 -2.072182E-06  1.186250E-08  7.218571E-12 -2.261288E-15 -1.186250E-08  0.000000E+00  0.000000E+00  0.000000E+00  0.000000E+00  0.000000E+00  0.000000E+00  0.000000E+00  0.000000E+00  1.953056E+00  1.250760E-03 -3.916697E-07 -1.953056E+00                                                                                                                                                                                                                                                                                                                                                                                                                                                                                              
  6.250000E+02  1.250000E+02 -5.225000E+03  2.069821E-06  3.065076E-10 -3.243107E-12 -2.069821E-06  1.184621E-08  1.758484E-12 -1.860342E-14 -1.184621E-08  0.000000E+00  0.000000E+00  0.000000E+00  0.000000E+00  0.000000E+00  0.000000E+00  0.000000E+00  0.000000E+00  1.947722E+00  3.047346E-04 -3.220721E-06 -1.947722E+00                                                                                                                                                                                                                                                                                                                                                                                                                                                                                              
  7.600000E+02  1.250000E+02 -5.225000E+03  2.070137E-06 -5.489695E-10 -4.948771E-12 -2.070137E-06  1.184826E-08 -3.149091E-12 -2.838800E-14 -1.184826E-08  0.000000E+00  0.000000E+00  0.000000E+00  0.000000E+00  0.000000E+00  0.000000E+00  0.000000E+00  0.000000E+00  1.948295E+00 -5.452151E-04 -4.914859E-06 -1.948295E+00                                                                                                                                                                                                                                                                                                                                                                                                                                                                                              
  7.800000E+02  1.250000E+02 -5.225000E+03  2.070227E-06 -6.792185E-10 -5.207015E-12 -2.070227E-06  1.184888E-08 -3.896289E-12 -2.986960E-14 -1.184888E-08  0.000000E+00  0.000000E+00  0.000000E+00  0.000000E+00  0.000000E+00  0.000000E+00  0.000000E+00  0.000000E+00  1.948498E+00 -6.746014E-04 -5.171466E-06 -1.948498E+00                                                                                                                                                                                                                                                                                                                                                                                                                                                                                              
  8.000000E+02  1.250000E+02 -5.225000E+03  2.070383E-06 -8.043876E-10 -5.470909E-12 -2.070382E-06  1.184999E-08 -4.614510E-12 -3.138390E-14 -1.184999E-08  0.000000E+00  0.000000E+00  0.000000E+00  0.000000E+00  0.000000E+00  0.000000E+00  0.000000E+00  0.000000E+00  1.948889E+00 -7.991366E-04 -5.433862E-06 -1.948889E+00                                                                                                                                                                                                                                                                                                                                                                                                                                                                                              
  9.350000E+02  1.250000E+02 -5.225000E+03  2.071647E-06 -1.211876E-09 -7.293300E-12 -2.071646E-06  1.185906E-08 -6.952923E-12 -4.184338E-14 -1.185906E-08  0.000000E+00  0.000000E+00  0.000000E+00  0.000000E+00  0.000000E+00  0.000000E+00  0.000000E+00  0.000000E+00  1.952087E+00 -1.204573E-03 -7.247229E-06 -1.952087E+00                                                                                                                                                                                                                                                                                                                                                                                                                                                                                              
  1.185000E+03  1.250000E+02 -5.225000E+03  2.074030E-06 -1.680008E-09 -1.262525E-11 -2.074029E-06  1.187489E-08 -9.640002E-12 -7.244314E-14 -1.187488E-08  0.000000E+00  0.000000E+00  0.000000E+00  0.000000E+00  0.000000E+00  0.000000E+00  0.000000E+00  0.000000E+00  1.956838E+00 -1.670782E-03 -1.255124E-05 -1.956838E+00                                                                                                                                                                                                                                                                                                                                                                                                                                                                                              
  1.435000E+03  1.250000E+02 -5.225000E+03  2.077622E-06 -9.006445E-10 -1.930966E-11 -2.077621E-06  1.189887E-08 -5.168339E-12 -1.108194E-13 -1.189887E-08  0.000000E+00  0.000000E+00  0.000000E+00  0.000000E+00  0.000000E+00  0.000000E+00  0.000000E+00  0.000000E+00  1.964200E+00 -8.959880E-04 -1.920995E-05 -1.964200E+00                                                                                                                                                                                                                                                                                                                                                                                                                                                                                              
  1.250000E+02  1.250000E+02 -4.975000E+03  2.102205E-06  1.137327E-09  3.991085E-12 -2.102205E-06  1.162613E-08  6.332903E-12  2.223144E-14 -1.162613E-08  0.000000E+00  0.000000E+00  0.000000E+00  0.000000E+00  0.000000E+00  0.000000E+00  0.000000E+00  0.000000E+00  1.661673E+00  1.017318E-03  3.569950E-06 -1.661672E+00                                                                                                                                                                                                                                                                                                                                                                                                                                                                                              
  3.750000E+02  1.250000E+02 -4.975000E+03  2.097182E-06  1.940016E-09  1.200507E-12 -2.097182E-06  1.159045E-08  1.079953E-11  6.682398E-15 -1.159045E-08  0.000000E+00  0.000000E+00  0.000000E+00  0.000000E+00  0.000000E+00  0.000000E+00  0.000000E+00  0.000000E+00  1.648970E+00  1.733076E-03  1.070493E-06 -1.648969E+00                                                                                                                                                                                                                                                                                                                                                                                                                                                                                              
  6.250000E+02  1.250000E+02 -4.975000E+03  2.093649E-06  5.275317E-10 -2.568356E-12 -2.093649E-06  1.156449E-08  2.935900E-12 -1.428762E-14 -1.156449E-08  0.000000E+00  0.000000E+00  0.000000E+00  0.000000E+00  0.000000E+00  0.000000E+00  0.000000E+00  0.000000E+00  1.639409E+00  4.709948E-04 -2.284119E-06 -1.639409E+00                                                                                                                                                                                                                                                                                                                                                                                                                                                                                              
  7.600000E+02  1.250000E+02 -4.975000E+03  2.093617E-06 -6.599614E-10 -4.487042E-12 -2.093617E-06  1.156488E-08 -3.671506E-12 -2.496252E-14 -1.156488E-08  0.000000E+00  0.000000E+00  0.000000E+00  0.000000E+00  0.000000E+00  0.000000E+00  0.000000E+00  0.000000E+00  1.639961E+00 -5.870969E-04 -3.991431E-06 -1.639961E+00                                                                                                                                                                                                                                                                                                                                                                                                                                                                                              
  7.800000E+02  1.250000E+02 -4.975000E+03  2.093720E-06 -8.788859E-10 -4.775227E-12 -2.093720E-06  1.156569E-08 -4.889604E-12 -2.656637E-14 -1.156569E-08  0.000000E+00  0.000000E+00  0.000000E+00  0.000000E+00  0.000000E+00  0.000000E+00  0.000000E+00  0.000000E+00  1.640286E+00 -7.819734E-04 -4.248212E-06 -1.640286E+00                                                                                                                                                                                                                                                                                                                                                                                                                                                                                              
  8.000000E+02  1.250000E+02 -4.975000E+03  2.094002E-06 -1.089923E-09 -5.066044E-12 -2.094002E-06  1.156773E-08 -6.064478E-12 -2.818561E-14 -1.156773E-08  0.000000E+00  0.000000E+00  0.000000E+00  0.000000E+00  0.000000E+00  0.000000E+00  0.000000E+00  0.000000E+00  1.641002E+00 -9.707181E-04 -4.507861E-06 -1.641002E+00                                                                                                                                                                                                                                                                                                                                                                                                                                                                                              
  9.350000E+02  1.250000E+02 -4.975000E+03  2.096436E-06 -1.589880E-09 -7.047879E-12 -2.096435E-06  1.158517E-08 -8.849577E-12 -3.922683E-14 -1.158516E-08  0.000000E+00  0.000000E+00  0.000000E+00  0.000000E+00  0.000000E+00  0.000000E+00  0.000000E+00  0.000000E+00  1.647039E+00 -1.419022E-03 -6.281874E-06 -1.647038E+00                                                                                                                                                                                                                                                                                                                                                                                                                                                                                              
  1.185000E+03  1.250000E+02 -4.975000E+03  2.098746E-06 -2.471977E-09 -1.428103E-11 -2.098745E-06  1.160338E-08 -1.376711E-11 -7.952474E-14 -1.160337E-08  0.000000E+00  0.000000E+00  0.000000E+00  0.000000E+00  0.000000E+00  0.000000E+00  0.000000E+00  0.000000E+00  1.654693E+00 -2.212809E-03 -1.275699E-05 -1.654692E+00                                                                                                                                                                                                                                                                                                                                                                                                                                                                                              
  1.435000E+03  1.250000E+02 -4.975000E+03  2.104924E-06 -1.477938E-09 -2.617390E-11 -2.104923E-06  1.164674E-08 -8.233192E-12 -1.458692E-13 -1.164673E-08  0.000000E+00  0.000000E+00  0.000000E+00  0.000000E+00  0.000000E+00  0.000000E+00  0.000000E+00  0.000000E+00  1.669933E+00 -1.324865E-03 -2.346392E-05 -1.669933E+00                                                                                                                                                                                                                                                                                                                                                                                                                                                                                              
  1.250000E+02  1.250000E+02 -4.725000E+03  2.137942E-06 -1.877994E-09 -2.138178E-12 -2.137941E-06  1.128799E-08 -9.928394E-12 -1.131043E-14 -1.128798E-08  0.000000E+00  0.000000E+00  0.000000E+00  0.000000E+00  0.000000E+00  0.000000E+00  0.000000E+00  0.000000E+00  1.161052E+00 -1.281724E-03 -1.471350E-06 -1.161051E+00                                                                                                                                                                                                                                                                                                                                                                                                                                                                                              
  3.750000E+02  1.250000E+02 -4.725000E+03  2.133274E-06 -3.457285E-09 -1.032203E-12 -2.133271E-06  1.125419E-08 -1.826898E-11 -5.453602E-15 -1.125418E-08  0.000000E+00  0.000000E+00  0.000000E+00  0.000000E+00  0.000000E+00  0.000000E+00  0.000000E+00  0.000000E+00  1.151856E+00 -2.353019E-03 -7.044661E-07 -1.151853E+00                                                                                                                                                                                                                                                                                                                                                                                                                                                                                              
  6.250000E+02  1.250000E+02 -4.725000E+03  2.130653E-06 -9.091152E-10  4.123208E-12 -2.130653E-06  1.123350E-08 -4.802711E-12  2.176584E-14 -1.123350E-08  0.000000E+00  0.000000E+00  0.000000E+00  0.000000E+00  0.000000E+00  0.000000E+00  0.000000E+00  0.000000E+00  1.145828E+00 -6.166888E-04  2.796935E-06 -1.145828E+00                                                                                                                                                                                                                                                                                                                                                                                                                                                                                              
  7.600000E+02  1.250000E+02 -4.725000E+03  2.130769E-06  1.553565E-09  6.254972E-12 -2.130768E-06  1.123457E-08  8.201540E-12  3.302130E-14 -1.123457E-08  0.000000E+00  0.000000E+00  0.000000E+00  0.000000E+00  0.000000E+00  0.000000E+00  0.000000E+00  0.000000E+00  1.146152E+00  1.054116E-03  4.244916E-06 -1.146151E+00                                                                                                                                                                                                                                                                                                                                                                                                                                                                                              
  7.800000E+02  1.250000E+02 -4.725000E+03  2.130854E-06  1.977312E-09  6.572445E-12 -2.130853E-06  1.123526E-08  1.043906E-11  3.469835E-14 -1.123526E-08  0.000000E+00  0.000000E+00  0.000000E+00  0.000000E+00  0.000000E+00  0.000000E+00  0.000000E+00  0.000000E+00  1.146352E+00  1.342053E-03  4.461312E-06 -1.146352E+00                                                                                                                                                                                                                                                                                                                                                                                                                                                                                              
  8.000000E+02  1.250000E+02 -4.725000E+03  2.131046E-06  2.381892E-09  6.891923E-12 -2.131045E-06  1.123678E-08  1.257733E-11  3.638726E-14 -1.123678E-08  0.000000E+00  0.000000E+00  0.000000E+00  0.000000E+00  0.000000E+00  0.000000E+00  0.000000E+00  0.000000E+00  1.146795E+00  1.617189E-03  4.680221E-06 -1.146793E+00                                                                                                                                                                                                                                                                                                                                                                                                                                                                                              
  9.350000E+02  1.250000E+02 -4.725000E+03  2.132692E-06  3.153516E-09  8.996931E-12 -2.132689E-06  1.124975E-08  1.666045E-11  4.752614E-14 -1.124974E-08  0.000000E+00  0.000000E+00  0.000000E+00  0.000000E+00  0.000000E+00  0.000000E+00  0.000000E+00  0.000000E+00  1.150571E+00  2.146214E-03  6.132372E-06 -1.150569E+00                                                                                                                                                                                                                                                                                                                                                                                                                                                                                              
  1.185000E+03  1.250000E+02 -4.725000E+03  2.134778E-06  3.925971E-09  1.684398E-11 -2.134774E-06  1.126645E-08  2.075896E-11  8.904530E-14 -1.126644E-08  0.000000E+00  0.000000E+00  0.000000E+00  0.000000E+00  0.000000E+00  0.000000E+00  0.000000E+00  0.000000E+00  1.155485E+00  2.683329E-03  1.154114E-05 -1.155481E+00                                                                                                                                                                                                                                                                                                                                                                                                                                                                                              