Title="TOUGHREACT V3.30-OMP flowvector.tec: Liq & Gas Fluxes (kg/s/m^2), Pore Velocities (m/s), & Heat Fluxes (J/s/m2)"                                                                                                                                                                                                                                                                                                                                                                                                                                                                                                                                                                                                                                                                                                         
Variables= "X(m)"     "Y(m)"      "Z(m)"     "FluxLiq"   "FluxLiq_X"   "FluxLiq_Y"   "FluxLiq_Z"   "PorVelLiq"  "PorVelLiqX"  "PorVelLiqY"  "PorVelLiqZ"     "FluxGas"   "FluxGas_X"   "FluxGas_Y"   "FluxGas_Z"   "PorVelGas"  "PorVelGasX"  "PorVelGasY"  "PorVelGasZ"    "HeatFlux"  "HeatFlux_X"  "HeatFlux_Y"  "HeatFlux_Z"                                                                                                                                                                                                                                                                                                                                                                                                                                                                                                
Zone T= "3.67000000E+10 sec" I=     9 J=    10 K=    23 F=Point
  1.250000E+02  1.250000E+02 -5.425000E+03  1.048038E-06  0.000000E+00  0.000000E+00 -1.048038E-06  6.102266E-09  0.000000E+00  0.000000E+00 -6.102266E-09  0.000000E+00  0.000000E+00  0.000000E+00  0.000000E+00  0.000000E+00  0.000000E+00  0.000000E+00  0.000000E+00  1.059870E+00  0.000000E+00  0.000000E+00 -1.059870E+00                                                                                                                                                                                                                                                                                                                                                                                                                                                                                              
  3.750000E+02  1.250000E+02 -5.425000E+03  1.046909E-06  0.000000E+00  0.000000E+00 -1.046909E-06  6.095439E-09  0.000000E+00  0.000000E+00 -6.095439E-09  0.000000E+00  0.000000E+00  0.000000E+00  0.000000E+00  0.000000E+00  0.000000E+00  0.000000E+00  0.000000E+00  1.058408E+00  0.000000E+00  0.000000E+00 -1.058408E+00                                                                                                                                                                                                                                                                                                                                                                                                                                                                                              
  6.250000E+02  1.250000E+02 -5.425000E+03  1.046015E-06  0.000000E+00  0.000000E+00 -1.046015E-06  6.089940E-09  0.000000E+00  0.000000E+00 -6.089940E-09  0.000000E+00  0.000000E+00  0.000000E+00  0.000000E+00  0.000000E+00  0.000000E+00  0.000000E+00  0.000000E+00  1.057137E+00  0.000000E+00  0.000000E+00 -1.057137E+00                                                                                                                                                                                                                                                                                                                                                                                                                                                                                              
  7.600000E+02  1.250000E+02 -5.425000E+03  1.046217E-06  0.000000E+00  0.000000E+00 -1.046217E-06  6.091136E-09  0.000000E+00  0.000000E+00 -6.091136E-09  0.000000E+00  0.000000E+00  0.000000E+00  0.000000E+00  0.000000E+00  0.000000E+00  0.000000E+00  0.000000E+00  1.057364E+00  0.000000E+00  0.000000E+00 -1.057364E+00                                                                                                                                                                                                                                                                                                                                                                                                                                                                                              
  7.800000E+02  1.250000E+02 -5.425000E+03  1.046259E-06  0.000000E+00  0.000000E+00 -1.046259E-06  6.091389E-09  0.000000E+00  0.000000E+00 -6.091389E-09  0.000000E+00  0.000000E+00  0.000000E+00  0.000000E+00  0.000000E+00  0.000000E+00  0.000000E+00  0.000000E+00  1.057421E+00  0.000000E+00  0.000000E+00 -1.057421E+00                                                                                                                                                                                                                                                                                                                                                                                                                                                                                              
  8.000000E+02  1.250000E+02 -5.425000E+03  1.046314E-06  0.000000E+00  0.000000E+00 -1.046314E-06  6.091740E-09  0.000000E+00  0.000000E+00 -6.091740E-09  0.000000E+00  0.000000E+00  0.000000E+00  0.000000E+00  0.000000E+00  0.000000E+00  0.000000E+00  0.000000E+00  1.057512E+00  0.000000E+00  0.000000E+00 -1.057512E+00                                                                                                                                                                                                                                                                                                                                                                                                                                                                                              
  9.350000E+02  1.250000E+02 -5.425000E+03  1.046756E-06  0.000000E+00  0.000000E+00 -1.046756E-06  6.094540E-09  0.000000E+00  0.000000E+00 -6.094540E-09  0.000000E+00  0.000000E+00  0.000000E+00  0.000000E+00  0.000000E+00  0.000000E+00  0.000000E+00  0.000000E+00  1.058243E+00  0.000000E+00  0.000000E+00 -1.058243E+00                                                                                                                                                                                                                                                                                                                                                                                                                                                                                              
  1.185000E+03  1.250000E+02 -5.425000E+03  1.048036E-06  0.000000E+00  0.000000E+00 -1.048036E-06  6.102151E-09  0.000000E+00  0.000000E+00 -6.102151E-09  0.000000E+00  0.000000E+00  0.000000E+00  0.000000E+00  0.000000E+00  0.000000E+00  0.000000E+00  0.000000E+00  1.059747E+00  0.000000E+00  0.000000E+00 -1.059747E+00                                                                                                                                                                                                                                                                                                                                                                                                                                                                                              
  1.435000E+03  1.250000E+02 -5.425000E+03  1.049528E-06  0.000000E+00  0.000000E+00 -1.049528E-06  6.111073E-09  0.000000E+00  0.000000E+00 -6.111073E-09  0.000000E+00  0.000000E+00  0.000000E+00  0.000000E+00  0.000000E+00  0.000000E+00  0.000000E+00  0.000000E+00  1.061561E+00  0.000000E+00  0.000000E+00 -1.061561E+00                                                                                                                                                                                                                                                                                                                                                                                                                                                                                              
  1.250000E+02  1.250000E+02 -5.225000E+03  2.103930E-06  8.222951E-10 -1.811389E-13 -2.103930E-06  1.210477E-08  4.741043E-12 -1.044425E-15 -1.210477E-08  0.000000E+00  0.000000E+00  0.000000E+00  0.000000E+00  0.000000E+00  0.000000E+00  0.000000E+00  0.000000E+00  2.043354E+00  8.315783E-04 -1.831837E-07 -2.043354E+00                                                                                                                                                                                                                                                                                                                                                                                                                                                                                              
  3.750000E+02  1.250000E+02 -5.225000E+03  2.100798E-06  1.440551E-09 -2.884104E-12 -2.100797E-06  1.208457E-08  8.305343E-12 -1.662798E-14 -1.208456E-08  0.000000E+00  0.000000E+00  0.000000E+00  0.000000E+00  0.000000E+00  0.000000E+00  0.000000E+00  0.000000E+00  2.037676E+00  1.456625E-03 -2.915781E-06 -2.037675E+00                                                                                                                                                                                                                                                                                                                                                                                                                                                                                              
  6.250000E+02  1.250000E+02 -5.225000E+03  2.098434E-06  3.272635E-10 -7.632958E-12 -2.098434E-06  1.206885E-08  1.886780E-12 -4.400262E-14 -1.206885E-08  0.000000E+00  0.000000E+00  0.000000E+00  0.000000E+00  0.000000E+00  0.000000E+00  0.000000E+00  0.000000E+00  2.032911E+00  3.309542E-04 -7.714118E-06 -2.032911E+00                                                                                                                                                                                                                                                                                                                                                                                                                                                                                              
  7.600000E+02  1.250000E+02 -5.225000E+03  2.098793E-06 -6.571662E-10 -1.079438E-11 -2.098793E-06  1.207109E-08 -3.788465E-12 -6.222803E-14 -1.207109E-08  0.000000E+00  0.000000E+00  0.000000E+00  0.000000E+00  0.000000E+00  0.000000E+00  0.000000E+00  0.000000E+00  2.033474E+00 -6.641734E-04 -1.090940E-05 -2.033474E+00                                                                                                                                                                                                                                                                                                                                                                                                                                                                                              
  7.800000E+02  1.250000E+02 -5.225000E+03  2.098885E-06 -8.063008E-10 -1.127359E-11 -2.098885E-06  1.207170E-08 -4.648231E-12 -6.499085E-14 -1.207170E-08  0.000000E+00  0.000000E+00  0.000000E+00  0.000000E+00  0.000000E+00  0.000000E+00  0.000000E+00  0.000000E+00  2.033660E+00 -8.149177E-04 -1.139387E-05 -2.033660E+00                                                                                                                                                                                                                                                                                                                                                                                                                                                                                              
  8.000000E+02  1.250000E+02 -5.225000E+03  2.099034E-06 -9.503801E-10 -1.176409E-11 -2.099033E-06  1.207273E-08 -5.478972E-12 -6.781915E-14 -1.207273E-08  0.000000E+00  0.000000E+00  0.000000E+00  0.000000E+00  0.000000E+00  0.000000E+00  0.000000E+00  0.000000E+00  2.034004E+00 -9.606901E-04 -1.188999E-05 -2.034004E+00                                                                                                                                                                                                                                                                                                                                                                                                                                                                                              
  9.350000E+02  1.250000E+02 -5.225000E+03  2.100240E-06 -1.485866E-09 -1.513875E-11 -2.100239E-06  1.208114E-08 -8.566598E-12 -8.728058E-14 -1.208113E-08  0.000000E+00  0.000000E+00  0.000000E+00  0.000000E+00  0.000000E+00  0.000000E+00  0.000000E+00  0.000000E+00  2.036827E+00 -1.502367E-03 -1.530489E-05 -2.036826E+00                                                                                                                                                                                                                                                                                                                                                                                                                                                                                              
  1.185000E+03  1.250000E+02 -5.225000E+03  2.102999E-06 -2.095072E-09 -2.417538E-11 -2.102998E-06  1.209856E-08 -1.207961E-11 -1.393876E-13 -1.209855E-08  0.000000E+00  0.000000E+00  0.000000E+00  0.000000E+00  0.000000E+00  0.000000E+00  0.000000E+00  0.000000E+00  2.041402E+00 -2.118808E-03 -2.444551E-05 -2.041401E+00                                                                                                                                                                                                                                                                                                                                                                                                                                                                                              
  1.435000E+03  1.250000E+02 -5.225000E+03  2.107061E-06 -1.119460E-09 -3.424733E-11 -2.107060E-06  1.212424E-08 -6.454699E-12 -1.974752E-13 -1.212424E-08  0.000000E+00  0.000000E+00  0.000000E+00  0.000000E+00  0.000000E+00  0.000000E+00  0.000000E+00  0.000000E+00  2.048213E+00 -1.132294E-03 -3.464004E-05 -2.048212E+00                                                                                                                                                                                                                                                                                                                                                                                                                                                                                              
  1.250000E+02  1.250000E+02 -4.975000E+03  2.129108E-06  1.747759E-09  4.716787E-12 -2.129107E-06  1.188364E-08  9.827028E-12  2.652888E-14 -1.188364E-08  0.000000E+00  0.000000E+00  0.000000E+00  0.000000E+00  0.000000E+00  0.000000E+00  0.000000E+00  0.000000E+00  1.784737E+00  1.627907E-03  4.393335E-06 -1.784737E+00                                                                                                                                                                                                                                                                                                                                                                                                                                                                                              
  3.750000E+02  1.250000E+02 -4.975000E+03  2.123046E-06  2.894059E-09 -1.609523E-12 -2.123044E-06  1.184187E-08  1.626866E-11 -9.047198E-15 -1.184186E-08  0.000000E+00  0.000000E+00  0.000000E+00  0.000000E+00  0.000000E+00  0.000000E+00  0.000000E+00  0.000000E+00  1.770221E+00  2.693043E-03 -1.495554E-06 -1.770219E+00                                                                                                                                                                                                                                                                                                                                                                                                                                                                                              
  6.250000E+02  1.250000E+02 -4.975000E+03  2.119345E-06  7.427054E-10 -9.729394E-12 -2.119345E-06  1.181460E-08  4.174164E-12 -5.466015E-14 -1.181460E-08  0.000000E+00  0.000000E+00  0.000000E+00  0.000000E+00  0.000000E+00  0.000000E+00  0.000000E+00  0.000000E+00  1.759682E+00  6.908606E-04 -9.020853E-06 -1.759681E+00                                                                                                                                                                                                                                                                                                                                                                                                                                                                                              
  7.600000E+02  1.250000E+02 -4.975000E+03  2.119286E-06 -9.590379E-10 -1.458993E-11 -2.119286E-06  1.181486E-08 -5.388145E-12 -8.197073E-14 -1.181486E-08  0.000000E+00  0.000000E+00  0.000000E+00  0.000000E+00  0.000000E+00  0.000000E+00  0.000000E+00  0.000000E+00  1.760273E+00 -8.894101E-04 -1.353008E-05 -1.760273E+00                                                                                                                                                                                                                                                                                                                                                                                                                                                                                              
  7.800000E+02  1.250000E+02 -4.975000E+03  2.119385E-06 -1.262388E-09 -1.532958E-11 -2.119385E-06  1.181566E-08 -7.092679E-12 -8.612807E-14 -1.181566E-08  0.000000E+00  0.000000E+00  0.000000E+00  0.000000E+00  0.000000E+00  0.000000E+00  0.000000E+00  0.000000E+00  1.760625E+00 -1.170890E-03 -1.421719E-05 -1.760624E+00                                                                                                                                                                                                                                                                                                                                                                                                                                                                                              
  8.000000E+02  1.250000E+02 -4.975000E+03  2.119665E-06 -1.556783E-09 -1.609072E-11 -2.119664E-06  1.181772E-08 -8.747750E-12 -9.040835E-14 -1.181771E-08  0.000000E+00  0.000000E+00  0.000000E+00  0.000000E+00  0.000000E+00  0.000000E+00  0.000000E+00  0.000000E+00  1.761401E+00 -1.445171E-03 -1.492568E-05 -1.761400E+00                                                                                                                                                                                                                                                                                                                                                                                                                                                                                              
  9.350000E+02  1.250000E+02 -4.975000E+03  2.122079E-06 -2.493421E-09 -2.132879E-11 -2.122078E-06  1.183534E-08 -1.401559E-11 -1.198809E-13 -1.183533E-08  0.000000E+00  0.000000E+00  0.000000E+00  0.000000E+00  0.000000E+00  0.000000E+00  0.000000E+00  0.000000E+00  1.767963E+00 -2.318789E-03 -1.981245E-05 -1.767961E+00                                                                                                                                                                                                                                                                                                                                                                                                                                                                                              
  1.185000E+03  1.250000E+02 -4.975000E+03  2.124788E-06 -4.117804E-09 -3.761694E-11 -2.124784E-06  1.185598E-08 -2.315673E-11 -2.115201E-13 -1.185596E-08  0.000000E+00  0.000000E+00  0.000000E+00  0.000000E+00  0.000000E+00  0.000000E+00  0.000000E+00  0.000000E+00  1.776619E+00 -3.837760E-03 -3.500337E-05 -1.776615E+00                                                                                                                                                                                                                                                                                                                                                                                                                                                                                              
  1.435000E+03  1.250000E+02 -4.975000E+03  2.132831E-06 -2.474220E-09 -6.139230E-11 -2.132829E-06  1.191000E-08 -1.391689E-11 -3.454343E-13 -1.190999E-08  0.000000E+00  0.000000E+00  0.000000E+00  0.000000E+00  0.000000E+00  0.000000E+00  0.000000E+00  0.000000E+00  1.794468E+00 -2.308387E-03 -5.727915E-05 -1.794466E+00                                                                                                                                                                                                                                                                                                                                                                                                                                                                                              
  1.250000E+02  1.250000E+02 -4.725000E+03  2.171205E-06 -7.880663E-10  6.339449E-12 -2.171205E-06  1.156516E-08 -4.219197E-12  3.396542E-14 -1.156515E-08  0.000000E+00  0.000000E+00  0.000000E+00  0.000000E+00  0.000000E+00  0.000000E+00  0.000000E+00  0.000000E+00  1.242804E+00 -5.830041E-04  4.732969E-06 -1.242804E+00                                                                                                                                                                                                                                                                                                                                                                                                                                                                                              
  3.750000E+02  1.250000E+02 -4.725000E+03  2.162621E-06 -2.230886E-09 -1.095092E-12 -2.162620E-06  1.150820E-08 -1.193361E-11 -5.858388E-15 -1.150819E-08  0.000000E+00  0.000000E+00  0.000000E+00  0.000000E+00  0.000000E+00  0.000000E+00  0.000000E+00  0.000000E+00  1.228345E+00 -1.643094E-03 -8.101281E-07 -1.228343E+00                                                                                                                                                                                                                                                                                                                                                                                                                                                                                              
  6.250000E+02  1.250000E+02 -4.725000E+03  2.160502E-06 -7.210063E-10  8.589863E-13 -2.160501E-06  1.148855E-08 -3.857105E-12  4.590147E-15 -1.148855E-08  0.000000E+00  0.000000E+00  0.000000E+00  0.000000E+00  0.000000E+00  0.000000E+00  0.000000E+00  0.000000E+00  1.221338E+00 -5.297483E-04  6.311270E-07 -1.221338E+00                                                                                                                                                                                                                                                                                                                                                                                                                                                                                              
  7.600000E+02  1.250000E+02 -4.725000E+03  2.160537E-06  1.650622E-09  1.064057E-12 -2.160536E-06  1.148931E-08  8.821089E-12  5.686478E-15 -1.148930E-08  0.000000E+00  0.000000E+00  0.000000E+00  0.000000E+00  0.000000E+00  0.000000E+00  0.000000E+00  0.000000E+00  1.221694E+00  1.213130E-03  7.822130E-07 -1.221694E+00                                                                                                                                                                                                                                                                                                                                                                                                                                                                                              
  7.800000E+02  1.250000E+02 -4.725000E+03  2.160603E-06  2.060815E-09  1.077774E-12 -2.160602E-06  1.148995E-08  1.101387E-11  5.760011E-15 -1.148994E-08  0.000000E+00  0.000000E+00  0.000000E+00  0.000000E+00  0.000000E+00  0.000000E+00  0.000000E+00  0.000000E+00  1.221924E+00  1.515151E-03  7.924861E-07 -1.221923E+00                                                                                                                                                                                                                                                                                                                                                                                                                                                                                              
  8.000000E+02  1.250000E+02 -4.725000E+03  2.160766E-06  2.447550E-09  1.073059E-12 -2.160765E-06  1.149143E-08  1.308382E-11  5.735270E-15 -1.149142E-08  0.000000E+00  0.000000E+00  0.000000E+00  0.000000E+00  0.000000E+00  0.000000E+00  0.000000E+00  0.000000E+00  1.222437E+00  1.800155E-03  7.894059E-07 -1.222436E+00                                                                                                                                                                                                                                                                                                                                                                                                                                                                                              
  9.350000E+02  1.250000E+02 -4.725000E+03  2.162168E-06  2.742998E-09  8.600712E-13 -2.162166E-06  1.150408E-08  1.467215E-11  4.600008E-15 -1.150407E-08  0.000000E+00  0.000000E+00  0.000000E+00  0.000000E+00  0.000000E+00  0.000000E+00  0.000000E+00  0.000000E+00  1.226810E+00  2.022263E-03  6.353412E-07 -1.226808E+00                                                                                                                                                                                                                                                                                                                                                                                                                                                                                              
  1.185000E+03  1.250000E+02 -4.725000E+03  2.163519E-06  1.448964E-09 -5.565545E-13 -2.163519E-06  1.151829E-08  7.753681E-12 -2.979589E-15 -1.151829E-08  0.000000E+00  0.000000E+00  0.000000E+00  0.000000E+00  0.000000E+00  0.000000E+00  0.000000E+00  0.000000E+00  1.232462E+00  1.070455E-03 -4.135814E-07 -1.232462E+00                                                                                                                                                                                                                                                                                                                                                                                                                                                                                              