Title="TOUGHREACT V3.30-OMP flowvector.tec: Liq & Gas Fluxes (kg/s/m^2), Pore Velocities (m/s), & Heat Fluxes (J/s/m2)"                                                                                                                                                                                                                                                                                                                                                                                                                                                                                                                                                                                                                                                                                                         
Variables= "X(m)"     "Y(m)"      "Z(m)"     "FluxLiq"   "FluxLiq_X"   "FluxLiq_Y"   "FluxLiq_Z"   "PorVelLiq"  "PorVelLiqX"  "PorVelLiqY"  "PorVelLiqZ"     "FluxGas"   "FluxGas_X"   "FluxGas_Y"   "FluxGas_Z"   "PorVelGas"  "PorVelGasX"  "PorVelGasY"  "PorVelGasZ"    "HeatFlux"  "HeatFlux_X"  "HeatFlux_Y"  "HeatFlux_Z"                                                                                                                                                                                                                                                                                                                                                                                                                                                                                                
Zone T= "5.67000000E+10 sec" I=     9 J=    10 K=    23 F=Point
  1.250000E+02  1.250000E+02 -5.425000E+03  1.025013E-06  0.000000E+00  0.000000E+00 -1.025013E-06  5.946154E-09  0.000000E+00  0.000000E+00 -5.946154E-09  0.000000E+00  0.000000E+00  0.000000E+00  0.000000E+00  0.000000E+00  0.000000E+00  0.000000E+00  0.000000E+00  1.009239E+00  0.000000E+00  0.000000E+00 -1.009239E+00                                                                                                                                                                                                                                                                                                                                                                                                                                                                                              
  3.750000E+02  1.250000E+02 -5.425000E+03  1.023835E-06  0.000000E+00  0.000000E+00 -1.023835E-06  5.938642E-09  0.000000E+00  0.000000E+00 -5.938642E-09  0.000000E+00  0.000000E+00  0.000000E+00  0.000000E+00  0.000000E+00  0.000000E+00  0.000000E+00  0.000000E+00  1.007223E+00  0.000000E+00  0.000000E+00 -1.007223E+00                                                                                                                                                                                                                                                                                                                                                                                                                                                                                              
  6.250000E+02  1.250000E+02 -5.425000E+03  1.022865E-06  0.000000E+00  0.000000E+00 -1.022865E-06  5.932376E-09  0.000000E+00  0.000000E+00 -5.932376E-09  0.000000E+00  0.000000E+00  0.000000E+00  0.000000E+00  0.000000E+00  0.000000E+00  0.000000E+00  0.000000E+00  1.005459E+00  0.000000E+00  0.000000E+00 -1.005459E+00                                                                                                                                                                                                                                                                                                                                                                                                                                                                                              
  7.600000E+02  1.250000E+02 -5.425000E+03  1.023041E-06  0.000000E+00  0.000000E+00 -1.023041E-06  5.933449E-09  0.000000E+00  0.000000E+00 -5.933449E-09  0.000000E+00  0.000000E+00  0.000000E+00  0.000000E+00  0.000000E+00  0.000000E+00  0.000000E+00  0.000000E+00  1.005698E+00  0.000000E+00  0.000000E+00 -1.005698E+00                                                                                                                                                                                                                                                                                                                                                                                                                                                                                              
  7.800000E+02  1.250000E+02 -5.425000E+03  1.023082E-06  0.000000E+00  0.000000E+00 -1.023082E-06  5.933712E-09  0.000000E+00  0.000000E+00 -5.933712E-09  0.000000E+00  0.000000E+00  0.000000E+00  0.000000E+00  0.000000E+00  0.000000E+00  0.000000E+00  0.000000E+00  1.005769E+00  0.000000E+00  0.000000E+00 -1.005769E+00                                                                                                                                                                                                                                                                                                                                                                                                                                                                                              
  8.000000E+02  1.250000E+02 -5.425000E+03  1.023144E-06  0.000000E+00  0.000000E+00 -1.023144E-06  5.934122E-09  0.000000E+00  0.000000E+00 -5.934122E-09  0.000000E+00  0.000000E+00  0.000000E+00  0.000000E+00  0.000000E+00  0.000000E+00  0.000000E+00  0.000000E+00  1.005897E+00  0.000000E+00  0.000000E+00 -1.005897E+00                                                                                                                                                                                                                                                                                                                                                                                                                                                                                              
  9.350000E+02  1.250000E+02 -5.425000E+03  1.023636E-06  0.000000E+00  0.000000E+00 -1.023636E-06  5.937415E-09  0.000000E+00  0.000000E+00 -5.937415E-09  0.000000E+00  0.000000E+00  0.000000E+00  0.000000E+00  0.000000E+00  0.000000E+00  0.000000E+00  0.000000E+00  1.006935E+00  0.000000E+00  0.000000E+00 -1.006935E+00                                                                                                                                                                                                                                                                                                                                                                                                                                                                                              
  1.185000E+03  1.250000E+02 -5.425000E+03  1.024771E-06  0.000000E+00  0.000000E+00 -1.024771E-06  5.944467E-09  0.000000E+00  0.000000E+00 -5.944467E-09  0.000000E+00  0.000000E+00  0.000000E+00  0.000000E+00  0.000000E+00  0.000000E+00  0.000000E+00  0.000000E+00  1.008647E+00  0.000000E+00  0.000000E+00 -1.008647E+00                                                                                                                                                                                                                                                                                                                                                                                                                                                                                              
  1.435000E+03  1.250000E+02 -5.425000E+03  1.026187E-06  0.000000E+00  0.000000E+00 -1.026187E-06  5.953411E-09  0.000000E+00  0.000000E+00 -5.953411E-09  0.000000E+00  0.000000E+00  0.000000E+00  0.000000E+00  0.000000E+00  0.000000E+00  0.000000E+00  0.000000E+00  1.010967E+00  0.000000E+00  0.000000E+00 -1.010967E+00                                                                                                                                                                                                                                                                                                                                                                                                                                                                                              
  1.250000E+02  1.250000E+02 -5.225000E+03  2.059965E-06  6.810289E-10  1.407949E-12 -2.059965E-06  1.176518E-08  3.896852E-12  8.057257E-15 -1.176518E-08  0.000000E+00  0.000000E+00  0.000000E+00  0.000000E+00  0.000000E+00  0.000000E+00  0.000000E+00  0.000000E+00  1.914800E+00  6.705484E-04  1.386282E-06 -1.914800E+00                                                                                                                                                                                                                                                                                                                                                                                                                                                                                              
  3.750000E+02  1.250000E+02 -5.225000E+03  2.056926E-06  1.207313E-09  7.964135E-14 -2.056926E-06  1.174441E-08  6.907577E-12  4.556571E-16 -1.174441E-08  0.000000E+00  0.000000E+00  0.000000E+00  0.000000E+00  0.000000E+00  0.000000E+00  0.000000E+00  0.000000E+00  1.908112E+00  1.188294E-03  7.834913E-08 -1.908112E+00                                                                                                                                                                                                                                                                                                                                                                                                                                                                                              
  6.250000E+02  1.250000E+02 -5.225000E+03  2.054507E-06  3.001675E-10 -2.453209E-12 -2.054507E-06  1.172759E-08  1.717300E-12 -1.403263E-14 -1.172759E-08  0.000000E+00  0.000000E+00  0.000000E+00  0.000000E+00  0.000000E+00  0.000000E+00  0.000000E+00  0.000000E+00  1.902539E+00  2.954616E-04 -2.411466E-06 -1.902539E+00                                                                                                                                                                                                                                                                                                                                                                                                                                                                                              
  7.600000E+02  1.250000E+02 -5.225000E+03  2.054813E-06 -5.151419E-10 -3.895007E-12 -2.054813E-06  1.172960E-08 -2.946716E-12 -2.228026E-14 -1.172960E-08  0.000000E+00  0.000000E+00  0.000000E+00  0.000000E+00  0.000000E+00  0.000000E+00  0.000000E+00  0.000000E+00  1.903119E+00 -5.064176E-04 -3.828979E-06 -1.903119E+00                                                                                                                                                                                                                                                                                                                                                                                                                                                                                              
  7.800000E+02  1.250000E+02 -5.225000E+03  2.054905E-06 -6.398169E-10 -4.111737E-12 -2.054905E-06  1.173024E-08 -3.659929E-12 -2.352021E-14 -1.173024E-08  0.000000E+00  0.000000E+00  0.000000E+00  0.000000E+00  0.000000E+00  0.000000E+00  0.000000E+00  0.000000E+00  1.903330E+00 -6.290129E-04 -4.042163E-06 -1.903330E+00                                                                                                                                                                                                                                                                                                                                                                                                                                                                                              
  8.000000E+02  1.250000E+02 -5.225000E+03  2.055066E-06 -7.595191E-10 -4.333253E-12 -2.055066E-06  1.173140E-08 -4.344878E-12 -2.478779E-14 -1.173140E-08  0.000000E+00  0.000000E+00  0.000000E+00  0.000000E+00  0.000000E+00  0.000000E+00  0.000000E+00  0.000000E+00  1.903739E+00 -7.469377E-04 -4.260217E-06 -1.903739E+00                                                                                                                                                                                                                                                                                                                                                                                                                                                                                              
  9.350000E+02  1.250000E+02 -5.225000E+03  2.056379E-06 -1.139040E-09 -5.853397E-12 -2.056379E-06  1.174085E-08 -6.516842E-12 -3.348860E-14 -1.174085E-08  0.000000E+00  0.000000E+00  0.000000E+00  0.000000E+00  0.000000E+00  0.000000E+00  0.000000E+00  0.000000E+00  1.907082E+00 -1.120880E-03 -5.757905E-06 -1.907082E+00                                                                                                                                                                                                                                                                                                                                                                                                                                                                                              
  1.185000E+03  1.250000E+02 -5.225000E+03  2.058736E-06 -1.582669E-09 -1.050855E-11 -2.058735E-06  1.175672E-08 -9.056494E-12 -6.013141E-14 -1.175671E-08  0.000000E+00  0.000000E+00  0.000000E+00  0.000000E+00  0.000000E+00  0.000000E+00  0.000000E+00  0.000000E+00  1.911991E+00 -1.558535E-03 -1.034323E-05 -1.911990E+00                                                                                                                                                                                                                                                                                                                                                                                                                                                                                              
  1.435000E+03  1.250000E+02 -5.225000E+03  2.062353E-06 -8.523565E-10 -1.655725E-11 -2.062353E-06  1.178121E-08 -4.877892E-12 -9.476667E-14 -1.178121E-08  0.000000E+00  0.000000E+00  0.000000E+00  0.000000E+00  0.000000E+00  0.000000E+00  0.000000E+00  0.000000E+00  1.919734E+00 -8.397144E-04 -1.631182E-05 -1.919734E+00                                                                                                                                                                                                                                                                                                                                                                                                                                                                                              
  1.250000E+02  1.250000E+02 -4.975000E+03  2.087567E-06  9.790352E-10  3.728551E-12 -2.087567E-06  1.149363E-08  5.424409E-12  2.066615E-14 -1.149363E-08  0.000000E+00  0.000000E+00  0.000000E+00  0.000000E+00  0.000000E+00  0.000000E+00  0.000000E+00  0.000000E+00  1.603408E+00  8.566353E-04  3.262404E-06 -1.603408E+00                                                                                                                                                                                                                                                                                                                                                                                                                                                                                              
  3.750000E+02  1.250000E+02 -4.975000E+03  2.082667E-06  1.679040E-09  1.671362E-12 -2.082666E-06  1.145890E-08  9.300203E-12  9.256964E-15 -1.145890E-08  0.000000E+00  0.000000E+00  0.000000E+00  0.000000E+00  0.000000E+00  0.000000E+00  0.000000E+00  0.000000E+00  1.591331E+00  1.467062E-03  1.457482E-06 -1.591330E+00                                                                                                                                                                                                                                                                                                                                                                                                                                                                                              
  6.250000E+02  1.250000E+02 -4.975000E+03  2.079144E-06  4.668612E-10 -1.356866E-12 -2.079144E-06  1.143326E-08  2.585275E-12 -7.510460E-15 -1.143326E-08  0.000000E+00  0.000000E+00  0.000000E+00  0.000000E+00  0.000000E+00  0.000000E+00  0.000000E+00  0.000000E+00  1.582210E+00  4.076418E-04 -1.179887E-06 -1.582210E+00                                                                                                                                                                                                                                                                                                                                                                                                                                                                                              
  7.600000E+02  1.250000E+02 -4.975000E+03  2.079126E-06 -5.627486E-10 -2.748324E-12 -2.079126E-06  1.143372E-08 -3.115055E-12 -1.521324E-14 -1.143372E-08  0.000000E+00  0.000000E+00  0.000000E+00  0.000000E+00  0.000000E+00  0.000000E+00  0.000000E+00  0.000000E+00  1.582741E+00 -4.895016E-04 -2.390471E-06 -1.582741E+00                                                                                                                                                                                                                                                                                                                                                                                                                                                                                              
  7.800000E+02  1.250000E+02 -4.975000E+03  2.079231E-06 -7.553086E-10 -2.955811E-12 -2.079230E-06  1.143452E-08 -4.181108E-12 -1.636216E-14 -1.143452E-08  0.000000E+00  0.000000E+00  0.000000E+00  0.000000E+00  0.000000E+00  0.000000E+00  0.000000E+00  0.000000E+00  1.583052E+00 -6.571071E-04 -2.571215E-06 -1.583052E+00                                                                                                                                                                                                                                                                                                                                                                                                                                                                                              
  8.000000E+02  1.250000E+02 -4.975000E+03  2.079513E-06 -9.407525E-10 -3.168104E-12 -2.079513E-06  1.143655E-08 -5.208340E-12 -1.753816E-14 -1.143655E-08  0.000000E+00  0.000000E+00  0.000000E+00  0.000000E+00  0.000000E+00  0.000000E+00  0.000000E+00  0.000000E+00  1.583736E+00 -8.193111E-04 -2.756484E-06 -1.583735E+00                                                                                                                                                                                                                                                                                                                                                                                                                                                                                              
  9.350000E+02  1.250000E+02 -4.975000E+03  2.081947E-06 -1.344903E-09 -4.609699E-12 -2.081946E-06  1.145380E-08 -7.448641E-12 -2.552849E-14 -1.145380E-08  0.000000E+00  0.000000E+00  0.000000E+00  0.000000E+00  0.000000E+00  0.000000E+00  0.000000E+00  0.000000E+00  1.589500E+00 -1.173939E-03 -4.017879E-06 -1.589500E+00                                                                                                                                                                                                                                                                                                                                                                                                                                                                                              
  1.185000E+03  1.250000E+02 -4.975000E+03  2.084241E-06 -2.072996E-09 -9.991864E-12 -2.084240E-06  1.147174E-08 -1.148778E-11 -5.536358E-14 -1.147173E-08  0.000000E+00  0.000000E+00  0.000000E+00  0.000000E+00  0.000000E+00  0.000000E+00  0.000000E+00  0.000000E+00  1.596788E+00 -1.815314E-03 -8.729734E-06 -1.596787E+00                                                                                                                                                                                                                                                                                                                                                                                                                                                                                              
  1.435000E+03  1.250000E+02 -4.975000E+03  2.090175E-06 -1.243142E-09 -1.948728E-11 -2.090175E-06  1.151346E-08 -6.890909E-12 -1.080685E-13 -1.151346E-08  0.000000E+00  0.000000E+00  0.000000E+00  0.000000E+00  0.000000E+00  0.000000E+00  0.000000E+00  0.000000E+00  1.611227E+00 -1.090296E-03 -1.709201E-05 -1.611227E+00                                                                                                                                                                                                                                                                                                                                                                                                                                                                                              
  1.250000E+02  1.250000E+02 -4.725000E+03  2.120855E-06 -1.906395E-09 -3.158810E-12 -2.120854E-06  1.115432E-08 -1.002617E-11 -1.662139E-14 -1.115431E-08  0.000000E+00  0.000000E+00  0.000000E+00  0.000000E+00  0.000000E+00  0.000000E+00  0.000000E+00  0.000000E+00  1.125335E+00 -1.254083E-03 -2.094136E-06 -1.125334E+00                                                                                                                                                                                                                                                                                                                                                                                                                                                                                              
  3.750000E+02  1.250000E+02 -4.725000E+03  2.116647E-06 -3.416221E-09 -9.800117E-13 -2.116644E-06  1.112389E-08 -1.795941E-11 -5.151307E-15 -1.112388E-08  0.000000E+00  0.000000E+00  0.000000E+00  0.000000E+00  0.000000E+00  0.000000E+00  0.000000E+00  0.000000E+00  1.117271E+00 -2.241601E-03 -6.446734E-07 -1.117269E+00                                                                                                                                                                                                                                                                                                                                                                                                                                                                                              
  6.250000E+02  1.250000E+02 -4.725000E+03  2.113924E-06 -8.805089E-10  4.248215E-12 -2.113924E-06  1.110335E-08 -4.627768E-12  2.231303E-14 -1.110335E-08  0.000000E+00  0.000000E+00  0.000000E+00  0.000000E+00  0.000000E+00  0.000000E+00  0.000000E+00  0.000000E+00  1.111699E+00 -5.759064E-04  2.778592E-06 -1.111699E+00                                                                                                                                                                                                                                                                                                                                                                                                                                                                                              
  7.600000E+02  1.250000E+02 -4.725000E+03  2.114061E-06  1.461954E-09  6.498709E-12 -2.114060E-06  1.110448E-08  7.679063E-12  3.413531E-14 -1.110448E-08  0.000000E+00  0.000000E+00  0.000000E+00  0.000000E+00  0.000000E+00  0.000000E+00  0.000000E+00  0.000000E+00  1.112002E+00  9.564345E-04  4.252326E-06 -1.112002E+00                                                                                                                                                                                                                                                                                                                                                                                                                                                                                              
  7.800000E+02  1.250000E+02 -4.725000E+03  2.114151E-06  1.866208E-09  6.832247E-12 -2.114150E-06  1.110517E-08  9.802849E-12  3.588822E-14 -1.110517E-08  0.000000E+00  0.000000E+00  0.000000E+00  0.000000E+00  0.000000E+00  0.000000E+00  0.000000E+00  0.000000E+00  1.112188E+00  1.221258E-03  4.471461E-06 -1.112188E+00                                                                                                                                                                                                                                                                                                                                                                                                                                                                                              
  8.000000E+02  1.250000E+02 -4.725000E+03  2.114348E-06  2.252721E-09  7.169796E-12 -2.114346E-06  1.110667E-08  1.183506E-11  3.766336E-14 -1.110666E-08  0.000000E+00  0.000000E+00  0.000000E+00  0.000000E+00  0.000000E+00  0.000000E+00  0.000000E+00  0.000000E+00  1.112597E+00  1.474655E-03  4.694312E-06 -1.112596E+00                                                                                                                                                                                                                                                                                                                                                                                                                                                                                              
  9.350000E+02  1.250000E+02 -4.725000E+03  2.116042E-06  3.034369E-09  9.437626E-12 -2.116040E-06  1.111948E-08  1.594895E-11  4.959960E-14 -1.111947E-08  0.000000E+00  0.000000E+00  0.000000E+00  0.000000E+00  0.000000E+00  0.000000E+00  0.000000E+00  0.000000E+00  1.116090E+00  1.990864E-03  6.200761E-06 -1.116088E+00                                                                                                                                                                                                                                                                                                                                                                                                                                                                                              
  1.185000E+03  1.250000E+02 -4.725000E+03  2.118284E-06  4.027116E-09  1.801739E-11 -2.118281E-06  1.113642E-08  2.118317E-11  9.475364E-14 -1.113640E-08  0.000000E+00  0.000000E+00  0.000000E+00  0.000000E+00  0.000000E+00  0.000000E+00  0.000000E+00  0.000000E+00  1.120650E+00  2.653050E-03  1.189597E-05 -1.120647E+00                                                                                                                                                                                                                                                                                                                                                                                                                                                                                              