Title="TOUGHREACT V3.30-OMP flowvector.tec: Liq & Gas Fluxes (kg/s/m^2), Pore Velocities (m/s), & Heat Fluxes (J/s/m2)"                                                                                                                                                                                                                                                                                                                                                                                                                                                                                                                                                                                                                                                                                                         
Variables= "X(m)"     "Y(m)"      "Z(m)"     "FluxLiq"   "FluxLiq_X"   "FluxLiq_Y"   "FluxLiq_Z"   "PorVelLiq"  "PorVelLiqX"  "PorVelLiqY"  "PorVelLiqZ"     "FluxGas"   "FluxGas_X"   "FluxGas_Y"   "FluxGas_Z"   "PorVelGas"  "PorVelGasX"  "PorVelGasY"  "PorVelGasZ"    "HeatFlux"  "HeatFlux_X"  "HeatFlux_Y"  "HeatFlux_Z"                                                                                                                                                                                                                                                                                                                                                                                                                                                                                                
Zone T= "3.00000000E+09 sec" I=     9 J=    10 K=    23 F=Point
  1.250000E+02  1.250000E+02 -5.425000E+03  3.080897E-07  0.000000E+00  0.000000E+00 -3.080897E-07  1.803952E-09  0.000000E+00  0.000000E+00 -1.803952E-09  0.000000E+00  0.000000E+00  0.000000E+00  0.000000E+00  0.000000E+00  0.000000E+00  0.000000E+00  0.000000E+00  3.201871E-01  0.000000E+00  0.000000E+00 -3.201871E-01                                                                                                                                                                                                                                                                                                                                                                                                                                                                                              
  3.750000E+02  1.250000E+02 -5.425000E+03  3.042935E-07  0.000000E+00  0.000000E+00 -3.042935E-07  1.781743E-09  0.000000E+00  0.000000E+00 -1.781743E-09  0.000000E+00  0.000000E+00  0.000000E+00  0.000000E+00  0.000000E+00  0.000000E+00  0.000000E+00  0.000000E+00  3.162478E-01  0.000000E+00  0.000000E+00 -3.162478E-01                                                                                                                                                                                                                                                                                                                                                                                                                                                                                              
  6.250000E+02  1.250000E+02 -5.425000E+03  3.013028E-07  0.000000E+00  0.000000E+00 -3.013028E-07  1.764251E-09  0.000000E+00  0.000000E+00 -1.764251E-09  0.000000E+00  0.000000E+00  0.000000E+00  0.000000E+00  0.000000E+00  0.000000E+00  0.000000E+00  0.000000E+00  3.131492E-01  0.000000E+00  0.000000E+00 -3.131492E-01                                                                                                                                                                                                                                                                                                                                                                                                                                                                                              
  7.600000E+02  1.250000E+02 -5.425000E+03  3.019474E-07  0.000000E+00  0.000000E+00 -3.019474E-07  1.768020E-09  0.000000E+00  0.000000E+00 -1.768020E-09  0.000000E+00  0.000000E+00  0.000000E+00  0.000000E+00  0.000000E+00  0.000000E+00  0.000000E+00  0.000000E+00  3.138156E-01  0.000000E+00  0.000000E+00 -3.138156E-01                                                                                                                                                                                                                                                                                                                                                                                                                                                                                              
  7.800000E+02  1.250000E+02 -5.425000E+03  3.020677E-07  0.000000E+00  0.000000E+00 -3.020677E-07  1.768723E-09  0.000000E+00  0.000000E+00 -1.768723E-09  0.000000E+00  0.000000E+00  0.000000E+00  0.000000E+00  0.000000E+00  0.000000E+00  0.000000E+00  0.000000E+00  3.139401E-01  0.000000E+00  0.000000E+00 -3.139401E-01                                                                                                                                                                                                                                                                                                                                                                                                                                                                                              
  8.000000E+02  1.250000E+02 -5.425000E+03  3.022125E-07  0.000000E+00  0.000000E+00 -3.022125E-07  1.769570E-09  0.000000E+00  0.000000E+00 -1.769570E-09  0.000000E+00  0.000000E+00  0.000000E+00  0.000000E+00  0.000000E+00  0.000000E+00  0.000000E+00  0.000000E+00  3.140899E-01  0.000000E+00  0.000000E+00 -3.140899E-01                                                                                                                                                                                                                                                                                                                                                                                                                                                                                              
  9.350000E+02  1.250000E+02 -5.425000E+03  3.033504E-07  0.000000E+00  0.000000E+00 -3.033504E-07  1.776225E-09  0.000000E+00  0.000000E+00 -1.776225E-09  0.000000E+00  0.000000E+00  0.000000E+00  0.000000E+00  0.000000E+00  0.000000E+00  0.000000E+00  0.000000E+00  3.152679E-01  0.000000E+00  0.000000E+00 -3.152679E-01                                                                                                                                                                                                                                                                                                                                                                                                                                                                                              
  1.185000E+03  1.250000E+02 -5.425000E+03  3.083922E-07  0.000000E+00  0.000000E+00 -3.083922E-07  1.805721E-09  0.000000E+00  0.000000E+00 -1.805721E-09  0.000000E+00  0.000000E+00  0.000000E+00  0.000000E+00  0.000000E+00  0.000000E+00  0.000000E+00  0.000000E+00  3.205006E-01  0.000000E+00  0.000000E+00 -3.205006E-01                                                                                                                                                                                                                                                                                                                                                                                                                                                                                              
  1.435000E+03  1.250000E+02 -5.425000E+03  3.123429E-07  0.000000E+00  0.000000E+00 -3.123429E-07  1.828836E-09  0.000000E+00  0.000000E+00 -1.828836E-09  0.000000E+00  0.000000E+00  0.000000E+00  0.000000E+00  0.000000E+00  0.000000E+00  0.000000E+00  0.000000E+00  3.246037E-01  0.000000E+00  0.000000E+00 -3.246037E-01                                                                                                                                                                                                                                                                                                                                                                                                                                                                                              
  1.250000E+02  1.250000E+02 -5.225000E+03  6.327200E-07  3.048681E-09 -5.199577E-12 -6.327127E-07  3.679137E-09  1.775391E-11 -3.027948E-14 -3.679094E-09  0.000000E+00  0.000000E+00  0.000000E+00  0.000000E+00  0.000000E+00  0.000000E+00  0.000000E+00  0.000000E+00  6.418489E-01  3.168390E-03 -5.403743E-06 -6.418411E-01                                                                                                                                                                                                                                                                                                                                                                                                                                                                                              
  3.750000E+02  1.250000E+02 -5.225000E+03  6.211693E-07  5.447461E-09 -7.841540E-12 -6.211454E-07  3.612191E-09  3.172338E-11 -4.566550E-14 -3.612052E-09  0.000000E+00  0.000000E+00  0.000000E+00  0.000000E+00  0.000000E+00  0.000000E+00  0.000000E+00  0.000000E+00  6.302208E-01  5.661407E-03 -8.149599E-06 -6.301954E-01                                                                                                                                                                                                                                                                                                                                                                                                                                                                                              
  6.250000E+02  1.250000E+02 -5.225000E+03  6.122648E-07  1.442914E-09 -1.602680E-11 -6.122631E-07  3.560581E-09  8.402869E-12 -9.333418E-14 -3.560571E-09  0.000000E+00  0.000000E+00  0.000000E+00  0.000000E+00  0.000000E+00  0.000000E+00  0.000000E+00  0.000000E+00  6.212550E-01  1.499580E-03 -1.665693E-05 -6.212532E-01                                                                                                                                                                                                                                                                                                                                                                                                                                                                                              
  7.600000E+02  1.250000E+02 -5.225000E+03  6.138327E-07 -2.161045E-09 -2.049186E-11 -6.138289E-07  3.569669E-09 -1.258508E-11 -1.193365E-13 -3.569647E-09  0.000000E+00  0.000000E+00  0.000000E+00  0.000000E+00  0.000000E+00  0.000000E+00  0.000000E+00  0.000000E+00  6.228303E-01 -2.245984E-03 -2.129731E-05 -6.228262E-01                                                                                                                                                                                                                                                                                                                                                                                                                                                                                              
  7.800000E+02  1.250000E+02 -5.225000E+03  6.141376E-07 -2.655284E-09 -2.114351E-11 -6.141318E-07  3.571436E-09 -1.546331E-11 -1.231313E-13 -3.571403E-09  0.000000E+00  0.000000E+00  0.000000E+00  0.000000E+00  0.000000E+00  0.000000E+00  0.000000E+00  0.000000E+00  6.231377E-01 -2.759644E-03 -2.197453E-05 -6.231316E-01                                                                                                                                                                                                                                                                                                                                                                                                                                                                                              
  8.000000E+02  1.250000E+02 -5.225000E+03  6.145125E-07 -3.139202E-09 -2.178381E-11 -6.145045E-07  3.573611E-09 -1.828140E-11 -1.268600E-13 -3.573564E-09  0.000000E+00  0.000000E+00  0.000000E+00  0.000000E+00  0.000000E+00  0.000000E+00  0.000000E+00  0.000000E+00  6.235166E-01 -3.262552E-03 -2.263995E-05 -6.235081E-01                                                                                                                                                                                                                                                                                                                                                                                                                                                                                              
  9.350000E+02  1.250000E+02 -5.225000E+03  6.175053E-07 -5.738537E-09 -2.601929E-11 -6.174786E-07  3.590974E-09 -3.341836E-11 -1.515247E-13 -3.590818E-09  0.000000E+00  0.000000E+00  0.000000E+00  0.000000E+00  0.000000E+00  0.000000E+00  0.000000E+00  0.000000E+00  6.265465E-01 -5.963888E-03 -2.704149E-05 -6.265181E-01                                                                                                                                                                                                                                                                                                                                                                                                                                                                                              
  1.185000E+03  1.250000E+02 -5.225000E+03  6.312065E-07 -7.224248E-09 -3.030526E-11 -6.311652E-07  3.670425E-09 -4.206993E-11 -1.764809E-13 -3.670184E-09  0.000000E+00  0.000000E+00  0.000000E+00  0.000000E+00  0.000000E+00  0.000000E+00  0.000000E+00  0.000000E+00  6.403653E-01 -7.507867E-03 -3.149514E-05 -6.403213E-01                                                                                                                                                                                                                                                                                                                                                                                                                                                                                              
  1.435000E+03  1.250000E+02 -5.225000E+03  6.417245E-07 -3.174809E-09 -2.894660E-11 -6.417167E-07  3.731422E-09 -1.848814E-11 -1.685668E-13 -3.731376E-09  0.000000E+00  0.000000E+00  0.000000E+00  0.000000E+00  0.000000E+00  0.000000E+00  0.000000E+00  0.000000E+00  6.509770E-01 -3.299434E-03 -3.008289E-05 -6.509686E-01                                                                                                                                                                                                                                                                                                                                                                                                                                                                                              
  1.250000E+02  1.250000E+02 -4.975000E+03  6.903720E-07  1.077368E-08  5.546402E-12 -6.902879E-07  3.957917E-09  6.184366E-11  3.183775E-14 -3.957434E-09  0.000000E+00  0.000000E+00  0.000000E+00  0.000000E+00  0.000000E+00  0.000000E+00  0.000000E+00  0.000000E+00  6.661745E-01  1.067514E-02  5.495675E-06 -6.660890E-01                                                                                                                                                                                                                                                                                                                                                                                                                                                                                              
  3.750000E+02  1.250000E+02 -4.975000E+03  6.608544E-07  1.901947E-08  2.265560E-12 -6.605806E-07  3.788360E-09  1.091779E-10  1.300523E-14 -3.786786E-09  0.000000E+00  0.000000E+00  0.000000E+00  0.000000E+00  0.000000E+00  0.000000E+00  0.000000E+00  0.000000E+00  6.365822E-01  1.884535E-02  2.244793E-06 -6.363032E-01                                                                                                                                                                                                                                                                                                                                                                                                                                                                                              
  6.250000E+02  1.250000E+02 -4.975000E+03  6.400154E-07  5.617115E-09 -2.307248E-11 -6.399908E-07  3.667816E-09  3.224432E-11 -1.324479E-13 -3.667674E-09  0.000000E+00  0.000000E+00  0.000000E+00  0.000000E+00  0.000000E+00  0.000000E+00  0.000000E+00  0.000000E+00  6.146044E-01  5.565731E-03 -2.286054E-05 -6.145792E-01                                                                                                                                                                                                                                                                                                                                                                                                                                                                                              
  7.600000E+02  1.250000E+02 -4.975000E+03  6.424738E-07 -6.083783E-09 -3.529521E-11 -6.424450E-07  3.681982E-09 -3.492375E-11 -2.026107E-13 -3.681816E-09  0.000000E+00  0.000000E+00  0.000000E+00  0.000000E+00  0.000000E+00  0.000000E+00  0.000000E+00  0.000000E+00  6.171269E-01 -6.027780E-03 -3.497031E-05 -6.170975E-01                                                                                                                                                                                                                                                                                                                                                                                                                                                                                              
  7.800000E+02  1.250000E+02 -4.975000E+03  6.430319E-07 -7.723466E-09 -3.707884E-11 -6.429855E-07  3.685229E-09 -4.433620E-11 -2.128494E-13 -3.684962E-09  0.000000E+00  0.000000E+00  0.000000E+00  0.000000E+00  0.000000E+00  0.000000E+00  0.000000E+00  0.000000E+00  6.177400E-01 -7.652382E-03 -3.673752E-05 -6.176926E-01                                                                                                                                                                                                                                                                                                                                                                                                                                                                                              
  8.000000E+02  1.250000E+02 -4.975000E+03  6.437735E-07 -9.329693E-09 -3.883367E-11 -6.437059E-07  3.689573E-09 -5.355662E-11 -2.229229E-13 -3.689185E-09  0.000000E+00  0.000000E+00  0.000000E+00  0.000000E+00  0.000000E+00  0.000000E+00  0.000000E+00  0.000000E+00  6.185941E-01 -9.244043E-03 -3.847631E-05 -6.185250E-01                                                                                                                                                                                                                                                                                                                                                                                                                                                                                              
  9.350000E+02  1.250000E+02 -4.975000E+03  6.500356E-07 -1.768411E-08 -5.046980E-11 -6.497950E-07  3.726487E-09 -1.015127E-10 -2.897205E-13 -3.725104E-09  0.000000E+00  0.000000E+00  0.000000E+00  0.000000E+00  0.000000E+00  0.000000E+00  0.000000E+00  0.000000E+00  6.261010E-01 -1.752229E-02 -5.000740E-05 -6.258557E-01                                                                                                                                                                                                                                                                                                                                                                                                                                                                                              
  1.185000E+03  1.250000E+02 -4.975000E+03  6.788836E-07 -2.234607E-08 -6.389848E-11 -6.785157E-07  3.892180E-09 -1.282714E-10 -3.667950E-13 -3.890066E-09  0.000000E+00  0.000000E+00  0.000000E+00  0.000000E+00  0.000000E+00  0.000000E+00  0.000000E+00  0.000000E+00  6.549531E-01 -2.214178E-02 -6.331403E-05 -6.545787E-01                                                                                                                                                                                                                                                                                                                                                                                                                                                                                              
  1.435000E+03  1.250000E+02 -4.975000E+03  6.996840E-07 -9.723280E-09 -5.631783E-11 -6.996164E-07  4.011432E-09 -5.581297E-11 -3.232716E-13 -4.011043E-09  0.000000E+00  0.000000E+00  0.000000E+00  0.000000E+00  0.000000E+00  0.000000E+00  0.000000E+00  0.000000E+00  6.754667E-01 -9.634454E-03 -5.580335E-05 -6.753979E-01                                                                                                                                                                                                                                                                                                                                                                                                                                                                                              
  1.250000E+02  1.250000E+02 -4.725000E+03  8.223052E-07  3.291172E-08  5.196419E-11 -8.216463E-07  4.590730E-09  1.861686E-10  2.941062E-13 -4.586954E-09  0.000000E+00  0.000000E+00  0.000000E+00  0.000000E+00  0.000000E+00  0.000000E+00  0.000000E+00  0.000000E+00  6.641845E-01  3.100092E-02  4.894723E-05 -6.634606E-01                                                                                                                                                                                                                                                                                                                                                                                                                                                                                              
  3.750000E+02  1.250000E+02 -4.725000E+03  7.403445E-07  5.633990E-08  6.711207E-11 -7.381976E-07  4.089556E-09  3.185162E-10  3.794526E-13 -4.077133E-09  0.000000E+00  0.000000E+00  0.000000E+00  0.000000E+00  0.000000E+00  0.000000E+00  0.000000E+00  0.000000E+00  5.141406E-01  5.297234E-02  6.293904E-05 -5.114044E-01                                                                                                                                                                                                                                                                                                                                                                                                                                                                                              
  6.250000E+02  1.250000E+02 -4.725000E+03  6.890728E-07  1.795674E-08 -7.354604E-12 -6.888388E-07  3.793493E-09  1.014609E-10 -4.151455E-14 -3.792136E-09  0.000000E+00  0.000000E+00  0.000000E+00  0.000000E+00  0.000000E+00  0.000000E+00  0.000000E+00  0.000000E+00  4.507546E-01  1.687200E-02 -6.850436E-06 -4.504387E-01                                                                                                                                                                                                                                                                                                                                                                                                                                                                                              
  7.600000E+02  1.250000E+02 -4.725000E+03  6.877513E-07 -1.359710E-08 -2.983166E-11 -6.876169E-07  3.787182E-09 -7.676145E-11 -1.684146E-13 -3.786404E-09  0.000000E+00  0.000000E+00  0.000000E+00  0.000000E+00  0.000000E+00  0.000000E+00  0.000000E+00  0.000000E+00  4.511298E-01 -1.267455E-02 -2.780326E-05 -4.509518E-01                                                                                                                                                                                                                                                                                                                                                                                                                                                                                              
  7.800000E+02  1.250000E+02 -4.725000E+03  6.876096E-07 -1.898441E-08 -3.314786E-11 -6.873475E-07  3.786728E-09 -1.071852E-10 -1.871481E-13 -3.785210E-09  0.000000E+00  0.000000E+00  0.000000E+00  0.000000E+00  0.000000E+00  0.000000E+00  0.000000E+00  0.000000E+00  4.514670E-01 -1.770300E-02 -3.090204E-05 -4.511198E-01                                                                                                                                                                                                                                                                                                                                                                                                                                                                                              
  8.000000E+02  1.250000E+02 -4.725000E+03  6.874112E-07 -2.455567E-08 -3.647865E-11 -6.869725E-07  3.786141E-09 -1.386953E-10 -2.059773E-13 -3.783599E-09  0.000000E+00  0.000000E+00  0.000000E+00  0.000000E+00  0.000000E+00  0.000000E+00  0.000000E+00  0.000000E+00  4.519694E-01 -2.296538E-02 -3.402331E-05 -4.513855E-01                                                                                                                                                                                                                                                                                                                                                                                                                                                                                              
  9.350000E+02  1.250000E+02 -4.725000E+03  7.136387E-07 -4.650723E-08 -5.926386E-11 -7.121217E-07  3.936185E-09 -2.629490E-10 -3.350400E-13 -3.927392E-09  0.000000E+00  0.000000E+00  0.000000E+00  0.000000E+00  0.000000E+00  0.000000E+00  0.000000E+00  0.000000E+00  4.813093E-01 -4.371239E-02 -5.554513E-05 -4.793202E-01                                                                                                                                                                                                                                                                                                                                                                                                                                                                                              
  1.185000E+03  1.250000E+02 -4.725000E+03  7.818197E-07 -5.697017E-08 -9.764445E-11 -7.797412E-07  4.336979E-09 -3.222961E-10 -5.525271E-13 -4.324986E-09  0.000000E+00  0.000000E+00  0.000000E+00  0.000000E+00  0.000000E+00  0.000000E+00  0.000000E+00  0.000000E+00  5.803333E-01 -5.365073E-02 -9.188451E-05 -5.778480E-01                                                                                                                                                                                                                                                                                                                                                                                                                                                                                              