Title="TOUGHREACT V3.30-OMP flowvector.tec: Liq & Gas Fluxes (kg/s/m^2), Pore Velocities (m/s), & Heat Fluxes (J/s/m2)"                                                                                                                                                                                                                                                                                                                                                                                                                                                                                                                                                                                                                                                                                                         
Variables= "X(m)"     "Y(m)"      "Z(m)"     "FluxLiq"   "FluxLiq_X"   "FluxLiq_Y"   "FluxLiq_Z"   "PorVelLiq"  "PorVelLiqX"  "PorVelLiqY"  "PorVelLiqZ"     "FluxGas"   "FluxGas_X"   "FluxGas_Y"   "FluxGas_Z"   "PorVelGas"  "PorVelGasX"  "PorVelGasY"  "PorVelGasZ"    "HeatFlux"  "HeatFlux_X"  "HeatFlux_Y"  "HeatFlux_Z"                                                                                                                                                                                                                                                                                                                                                                                                                                                                                                
Zone T= "4.00000000E+10 sec" I=     9 J=    10 K=    23 F=Point
  1.250000E+02  1.250000E+02 -5.425000E+03  1.044403E-06  0.000000E+00  0.000000E+00 -1.044403E-06  6.077816E-09  0.000000E+00  0.000000E+00 -6.077816E-09  0.000000E+00  0.000000E+00  0.000000E+00  0.000000E+00  0.000000E+00  0.000000E+00  0.000000E+00  0.000000E+00  1.052160E+00  0.000000E+00  0.000000E+00 -1.052160E+00                                                                                                                                                                                                                                                                                                                                                                                                                                                                                              
  3.750000E+02  1.250000E+02 -5.425000E+03  1.043295E-06  0.000000E+00  0.000000E+00 -1.043295E-06  6.071044E-09  0.000000E+00  0.000000E+00 -6.071044E-09  0.000000E+00  0.000000E+00  0.000000E+00  0.000000E+00  0.000000E+00  0.000000E+00  0.000000E+00  0.000000E+00  1.050636E+00  0.000000E+00  0.000000E+00 -1.050636E+00                                                                                                                                                                                                                                                                                                                                                                                                                                                                                              
  6.250000E+02  1.250000E+02 -5.425000E+03  1.042403E-06  0.000000E+00  0.000000E+00 -1.042403E-06  6.065504E-09  0.000000E+00  0.000000E+00 -6.065504E-09  0.000000E+00  0.000000E+00  0.000000E+00  0.000000E+00  0.000000E+00  0.000000E+00  0.000000E+00  0.000000E+00  1.049296E+00  0.000000E+00  0.000000E+00 -1.049296E+00                                                                                                                                                                                                                                                                                                                                                                                                                                                                                              
  7.600000E+02  1.250000E+02 -5.425000E+03  1.042597E-06  0.000000E+00  0.000000E+00 -1.042597E-06  6.066654E-09  0.000000E+00  0.000000E+00 -6.066654E-09  0.000000E+00  0.000000E+00  0.000000E+00  0.000000E+00  0.000000E+00  0.000000E+00  0.000000E+00  0.000000E+00  1.049521E+00  0.000000E+00  0.000000E+00 -1.049521E+00                                                                                                                                                                                                                                                                                                                                                                                                                                                                                              
  7.800000E+02  1.250000E+02 -5.425000E+03  1.042638E-06  0.000000E+00  0.000000E+00 -1.042638E-06  6.066905E-09  0.000000E+00  0.000000E+00 -6.066905E-09  0.000000E+00  0.000000E+00  0.000000E+00  0.000000E+00  0.000000E+00  0.000000E+00  0.000000E+00  0.000000E+00  1.049580E+00  0.000000E+00  0.000000E+00 -1.049580E+00                                                                                                                                                                                                                                                                                                                                                                                                                                                                                              
  8.000000E+02  1.250000E+02 -5.425000E+03  1.042693E-06  0.000000E+00  0.000000E+00 -1.042693E-06  6.067260E-09  0.000000E+00  0.000000E+00 -6.067260E-09  0.000000E+00  0.000000E+00  0.000000E+00  0.000000E+00  0.000000E+00  0.000000E+00  0.000000E+00  0.000000E+00  1.049676E+00  0.000000E+00  0.000000E+00 -1.049676E+00                                                                                                                                                                                                                                                                                                                                                                                                                                                                                              
  9.350000E+02  1.250000E+02 -5.425000E+03  1.043135E-06  0.000000E+00  0.000000E+00 -1.043135E-06  6.070097E-09  0.000000E+00  0.000000E+00 -6.070097E-09  0.000000E+00  0.000000E+00  0.000000E+00  0.000000E+00  0.000000E+00  0.000000E+00  0.000000E+00  0.000000E+00  1.050452E+00  0.000000E+00  0.000000E+00 -1.050452E+00                                                                                                                                                                                                                                                                                                                                                                                                                                                                                              
  1.185000E+03  1.250000E+02 -5.425000E+03  1.044347E-06  0.000000E+00  0.000000E+00 -1.044347E-06  6.077362E-09  0.000000E+00  0.000000E+00 -6.077362E-09  0.000000E+00  0.000000E+00  0.000000E+00  0.000000E+00  0.000000E+00  0.000000E+00  0.000000E+00  0.000000E+00  1.051946E+00  0.000000E+00  0.000000E+00 -1.051946E+00                                                                                                                                                                                                                                                                                                                                                                                                                                                                                              
  1.435000E+03  1.250000E+02 -5.425000E+03  1.045770E-06  0.000000E+00  0.000000E+00 -1.045770E-06  6.085957E-09  0.000000E+00  0.000000E+00 -6.085957E-09  0.000000E+00  0.000000E+00  0.000000E+00  0.000000E+00  0.000000E+00  0.000000E+00  0.000000E+00  0.000000E+00  1.053783E+00  0.000000E+00  0.000000E+00 -1.053783E+00                                                                                                                                                                                                                                                                                                                                                                                                                                                                                              
  1.250000E+02  1.250000E+02 -5.225000E+03  2.097008E-06  7.789775E-10  3.715879E-13 -2.097008E-06  1.205141E-08  4.486300E-12  2.140176E-15 -1.205141E-08  0.000000E+00  0.000000E+00  0.000000E+00  0.000000E+00  0.000000E+00  0.000000E+00  0.000000E+00  0.000000E+00  2.023283E+00  7.847627E-04  3.743475E-07 -2.023283E+00                                                                                                                                                                                                                                                                                                                                                                                                                                                                                              
  3.750000E+02  1.250000E+02 -5.225000E+03  2.093984E-06  1.371550E-09 -1.871798E-12 -2.093984E-06  1.203160E-08  7.898664E-12 -1.077953E-14 -1.203160E-08  0.000000E+00  0.000000E+00  0.000000E+00  0.000000E+00  0.000000E+00  0.000000E+00  0.000000E+00  0.000000E+00  2.017474E+00  1.381505E-03 -1.884968E-06 -2.017473E+00                                                                                                                                                                                                                                                                                                                                                                                                                                                                                              
  6.250000E+02  1.250000E+02 -5.225000E+03  2.091653E-06  3.185105E-10 -5.921615E-12 -2.091653E-06  1.201590E-08  1.834246E-12 -3.409801E-14 -1.201590E-08  0.000000E+00  0.000000E+00  0.000000E+00  0.000000E+00  0.000000E+00  0.000000E+00  0.000000E+00  0.000000E+00  2.012571E+00  3.208603E-04 -5.960771E-06 -2.012571E+00                                                                                                                                                                                                                                                                                                                                                                                                                                                                                              
  7.600000E+02  1.250000E+02 -5.225000E+03  2.091995E-06 -6.198570E-10 -8.521311E-12 -2.091995E-06  1.201806E-08 -3.569303E-12 -4.906803E-14 -1.201806E-08  0.000000E+00  0.000000E+00  0.000000E+00  0.000000E+00  0.000000E+00  0.000000E+00  0.000000E+00  0.000000E+00  2.013133E+00 -6.239794E-04 -8.577903E-06 -2.013133E+00                                                                                                                                                                                                                                                                                                                                                                                                                                                                                              
  7.800000E+02  1.250000E+02 -5.225000E+03  2.092087E-06 -7.620959E-10 -8.915630E-12 -2.092086E-06  1.201867E-08 -4.388384E-12 -5.133887E-14 -1.201867E-08  0.000000E+00  0.000000E+00  0.000000E+00  0.000000E+00  0.000000E+00  0.000000E+00  0.000000E+00  0.000000E+00  2.013323E+00 -7.671860E-04 -8.974995E-06 -2.013323E+00                                                                                                                                                                                                                                                                                                                                                                                                                                                                                              
  8.000000E+02  1.250000E+02 -5.225000E+03  2.092235E-06 -8.992151E-10 -9.318565E-12 -2.092235E-06  1.201972E-08 -5.178114E-12 -5.365968E-14 -1.201972E-08  0.000000E+00  0.000000E+00  0.000000E+00  0.000000E+00  0.000000E+00  0.000000E+00  0.000000E+00  0.000000E+00  2.013680E+00 -9.053905E-04 -9.380970E-06 -2.013679E+00                                                                                                                                                                                                                                                                                                                                                                                                                                                                                              
  9.350000E+02  1.250000E+02 -5.225000E+03  2.093445E-06 -1.384868E-09 -1.209642E-11 -2.093444E-06  1.202824E-08 -7.975340E-12 -6.966186E-14 -1.202824E-08  0.000000E+00  0.000000E+00  0.000000E+00  0.000000E+00  0.000000E+00  0.000000E+00  0.000000E+00  0.000000E+00  2.016602E+00 -1.394819E-03 -1.218128E-05 -2.016601E+00                                                                                                                                                                                                                                                                                                                                                                                                                                                                                              
  1.185000E+03  1.250000E+02 -5.225000E+03  2.096033E-06 -1.936054E-09 -1.971746E-11 -2.096032E-06  1.204484E-08 -1.115041E-11 -1.135586E-13 -1.204483E-08  0.000000E+00  0.000000E+00  0.000000E+00  0.000000E+00  0.000000E+00  0.000000E+00  0.000000E+00  0.000000E+00  2.021168E+00 -1.950540E-03 -1.986093E-05 -2.021167E+00                                                                                                                                                                                                                                                                                                                                                                                                                                                                                              
  1.435000E+03  1.250000E+02 -5.225000E+03  2.099853E-06 -1.034100E-09 -2.848510E-11 -2.099853E-06  1.206942E-08 -5.955991E-12 -1.640717E-13 -1.206942E-08  0.000000E+00  0.000000E+00  0.000000E+00  0.000000E+00  0.000000E+00  0.000000E+00  0.000000E+00  0.000000E+00  2.028030E+00 -1.042024E-03 -2.870344E-05 -2.028030E+00                                                                                                                                                                                                                                                                                                                                                                                                                                                                                              
  1.250000E+02  1.250000E+02 -4.975000E+03  2.122718E-06  1.526033E-09  4.608357E-12 -2.122717E-06  1.182062E-08  8.560105E-12  2.585843E-14 -1.182062E-08  0.000000E+00  0.000000E+00  0.000000E+00  0.000000E+00  0.000000E+00  0.000000E+00  0.000000E+00  0.000000E+00  1.753315E+00  1.407904E-03  4.251628E-06 -1.753315E+00                                                                                                                                                                                                                                                                                                                                                                                                                                                                                              
  3.750000E+02  1.250000E+02 -4.975000E+03  2.117113E-06  2.553284E-09 -4.295612E-13 -2.117111E-06  1.178144E-08  1.431894E-11 -2.408840E-15 -1.178143E-08  0.000000E+00  0.000000E+00  0.000000E+00  0.000000E+00  0.000000E+00  0.000000E+00  0.000000E+00  0.000000E+00  1.739398E+00  2.353174E-03 -3.952778E-07 -1.739396E+00                                                                                                                                                                                                                                                                                                                                                                                                                                                                                              
  6.250000E+02  1.250000E+02 -4.975000E+03  2.113498E-06  6.657052E-10 -6.923462E-12 -2.113497E-06  1.175471E-08  3.732485E-12 -3.880286E-14 -1.175471E-08  0.000000E+00  0.000000E+00  0.000000E+00  0.000000E+00  0.000000E+00  0.000000E+00  0.000000E+00  0.000000E+00  1.729133E+00  6.132794E-04 -6.356178E-06 -1.729132E+00                                                                                                                                                                                                                                                                                                                                                                                                                                                                                              
  7.600000E+02  1.250000E+02 -4.975000E+03  2.113444E-06 -8.606550E-10 -1.064611E-11 -2.113444E-06  1.175500E-08 -4.823795E-12 -5.966958E-14 -1.175500E-08  0.000000E+00  0.000000E+00  0.000000E+00  0.000000E+00  0.000000E+00  0.000000E+00  0.000000E+00  0.000000E+00  1.729714E+00 -7.903385E-04 -9.775857E-06 -1.729714E+00                                                                                                                                                                                                                                                                                                                                                                                                                                                                                              
  7.800000E+02  1.250000E+02 -4.975000E+03  2.113544E-06 -1.135432E-09 -1.121216E-11 -2.113544E-06  1.175581E-08 -6.364073E-12 -6.284355E-14 -1.175580E-08  0.000000E+00  0.000000E+00  0.000000E+00  0.000000E+00  0.000000E+00  0.000000E+00  0.000000E+00  0.000000E+00  1.730059E+00 -1.042810E-03 -1.029655E-05 -1.730059E+00                                                                                                                                                                                                                                                                                                                                                                                                                                                                                              
  8.000000E+02  1.250000E+02 -4.975000E+03  2.113824E-06 -1.401431E-09 -1.178999E-11 -2.113824E-06  1.175786E-08 -7.855953E-12 -6.608516E-14 -1.175786E-08  0.000000E+00  0.000000E+00  0.000000E+00  0.000000E+00  0.000000E+00  0.000000E+00  0.000000E+00  0.000000E+00  1.730821E+00 -1.288263E-03 -1.082917E-05 -1.730820E+00                                                                                                                                                                                                                                                                                                                                                                                                                                                                                              
  9.350000E+02  1.250000E+02 -4.975000E+03  2.116243E-06 -2.172621E-09 -1.579268E-11 -2.116241E-06  1.177544E-08 -1.218325E-11 -8.855288E-14 -1.177543E-08  0.000000E+00  0.000000E+00  0.000000E+00  0.000000E+00  0.000000E+00  0.000000E+00  0.000000E+00  0.000000E+00  1.737254E+00 -2.000949E-03 -1.452731E-05 -1.737252E+00                                                                                                                                                                                                                                                                                                                                                                                                                                                                                              
  1.185000E+03  1.250000E+02 -4.975000E+03  2.118760E-06 -3.512994E-09 -2.861511E-11 -2.118757E-06  1.179499E-08 -1.970910E-11 -1.605232E-13 -1.179498E-08  0.000000E+00  0.000000E+00  0.000000E+00  0.000000E+00  0.000000E+00  0.000000E+00  0.000000E+00  0.000000E+00  1.745591E+00 -3.243161E-03 -2.637169E-05 -1.745588E+00                                                                                                                                                                                                                                                                                                                                                                                                                                                                                              
  1.435000E+03  1.250000E+02 -4.975000E+03  2.126012E-06 -2.105481E-09 -4.804098E-11 -2.126011E-06  1.184458E-08 -1.181518E-11 -2.696867E-13 -1.184457E-08  0.000000E+00  0.000000E+00  0.000000E+00  0.000000E+00  0.000000E+00  0.000000E+00  0.000000E+00  0.000000E+00  1.762541E+00 -1.946013E-03 -4.440376E-05 -1.762540E+00                                                                                                                                                                                                                                                                                                                                                                                                                                                                                              
  1.250000E+02  1.250000E+02 -4.725000E+03  2.162911E-06 -1.301934E-09  2.837385E-12 -2.162910E-06  1.149407E-08 -6.946339E-12  1.514906E-14 -1.149407E-08  0.000000E+00  0.000000E+00  0.000000E+00  0.000000E+00  0.000000E+00  0.000000E+00  0.000000E+00  0.000000E+00  1.220863E+00 -9.431733E-04  2.073967E-06 -1.220862E+00                                                                                                                                                                                                                                                                                                                                                                                                                                                                                              
  3.750000E+02  1.250000E+02 -4.725000E+03  2.156017E-06 -2.845985E-09 -1.101106E-12 -2.156015E-06  1.144679E-08 -1.517420E-11 -5.870518E-15 -1.144678E-08  0.000000E+00  0.000000E+00  0.000000E+00  0.000000E+00  0.000000E+00  0.000000E+00  0.000000E+00  0.000000E+00  1.208401E+00 -2.054309E-03 -7.976752E-07 -1.208400E+00                                                                                                                                                                                                                                                                                                                                                                                                                                                                                              
  6.250000E+02  1.250000E+02 -4.725000E+03  2.153721E-06 -8.276163E-10  2.342672E-12 -2.153720E-06  1.142663E-08 -4.412067E-12  1.247675E-14 -1.142663E-08  0.000000E+00  0.000000E+00  0.000000E+00  0.000000E+00  0.000000E+00  0.000000E+00  0.000000E+00  0.000000E+00  1.201647E+00 -5.955722E-04  1.685842E-06 -1.201647E+00                                                                                                                                                                                                                                                                                                                                                                                                                                                                                              
  7.600000E+02  1.250000E+02 -4.725000E+03  2.153783E-06  1.647732E-09  3.450857E-12 -2.153783E-06  1.142751E-08  8.776243E-12  1.838029E-14 -1.142750E-08  0.000000E+00  0.000000E+00  0.000000E+00  0.000000E+00  0.000000E+00  0.000000E+00  0.000000E+00  0.000000E+00  1.201998E+00  1.186088E-03  2.484583E-06 -1.201997E+00                                                                                                                                                                                                                                                                                                                                                                                                                                                                                              
  7.800000E+02  1.250000E+02 -4.725000E+03  2.153856E-06  2.074040E-09  3.603427E-12 -2.153855E-06  1.142817E-08  1.104749E-11  1.919363E-14 -1.142817E-08  0.000000E+00  0.000000E+00  0.000000E+00  0.000000E+00  0.000000E+00  0.000000E+00  0.000000E+00  0.000000E+00  1.202221E+00  1.493479E-03  2.595034E-06 -1.202220E+00                                                                                                                                                                                                                                                                                                                                                                                                                                                                                              
  8.000000E+02  1.250000E+02 -4.725000E+03  2.154029E-06  2.478238E-09  3.745871E-12 -2.154028E-06  1.142968E-08  1.320339E-11  1.995385E-14 -1.142967E-08  0.000000E+00  0.000000E+00  0.000000E+00  0.000000E+00  0.000000E+00  0.000000E+00  0.000000E+00  0.000000E+00  1.202716E+00  1.785180E-03  2.698903E-06 -1.202715E+00                                                                                                                                                                                                                                                                                                                                                                                                                                                                                              
  9.350000E+02  1.250000E+02 -4.725000E+03  2.155517E-06  2.999399E-09  4.571427E-12 -2.155515E-06  1.144252E-08  1.598959E-11  2.436699E-14 -1.144251E-08  0.000000E+00  0.000000E+00  0.000000E+00  0.000000E+00  0.000000E+00  0.000000E+00  0.000000E+00  0.000000E+00  1.206939E+00  2.165907E-03  3.307006E-06 -1.206937E+00                                                                                                                                                                                                                                                                                                                                                                                                                                                                                              
  1.185000E+03  1.250000E+02 -4.725000E+03  2.157127E-06  2.586817E-09  7.125342E-12 -2.157126E-06  1.145772E-08  1.380149E-11  3.801492E-14 -1.145771E-08  0.000000E+00  0.000000E+00  0.000000E+00  0.000000E+00  0.000000E+00  0.000000E+00  0.000000E+00  0.000000E+00  1.212401E+00  1.875163E-03  5.184166E-06 -1.212399E+00                                                                                                                                                                                                                                                                                                                                                                                                                                                                                              