Title="TOUGHREACT V3.30-OMP flowvector.tec: Liq & Gas Fluxes (kg/s/m^2), Pore Velocities (m/s), & Heat Fluxes (J/s/m2)"                                                                                                                                                                                                                                                                                                                                                                                                                                                                                                                                                                                                                                                                                                         
Variables= "X(m)"     "Y(m)"      "Z(m)"     "FluxLiq"   "FluxLiq_X"   "FluxLiq_Y"   "FluxLiq_Z"   "PorVelLiq"  "PorVelLiqX"  "PorVelLiqY"  "PorVelLiqZ"     "FluxGas"   "FluxGas_X"   "FluxGas_Y"   "FluxGas_Z"   "PorVelGas"  "PorVelGasX"  "PorVelGasY"  "PorVelGasZ"    "HeatFlux"  "HeatFlux_X"  "HeatFlux_Y"  "HeatFlux_Z"                                                                                                                                                                                                                                                                                                                                                                                                                                                                                                
Zone T= "7.66000000E+10 sec" I=     9 J=    10 K=    23 F=Point
  1.250000E+02  1.250000E+02 -5.425000E+03  1.001132E-06  0.000000E+00  0.000000E+00 -1.001132E-06  5.781376E-09  0.000000E+00  0.000000E+00 -5.781376E-09  0.000000E+00  0.000000E+00  0.000000E+00  0.000000E+00  0.000000E+00  0.000000E+00  0.000000E+00  0.000000E+00  9.523153E-01  0.000000E+00  0.000000E+00 -9.523153E-01                                                                                                                                                                                                                                                                                                                                                                                                                                                                                              
  3.750000E+02  1.250000E+02 -5.425000E+03  9.998108E-07  0.000000E+00  0.000000E+00 -9.998108E-07  5.772739E-09  0.000000E+00  0.000000E+00 -5.772739E-09  0.000000E+00  0.000000E+00  0.000000E+00  0.000000E+00  0.000000E+00  0.000000E+00  0.000000E+00  0.000000E+00  9.497510E-01  0.000000E+00  0.000000E+00 -9.497510E-01                                                                                                                                                                                                                                                                                                                                                                                                                                                                                              
  6.250000E+02  1.250000E+02 -5.425000E+03  9.987256E-07  0.000000E+00  0.000000E+00 -9.987256E-07  5.765588E-09  0.000000E+00  0.000000E+00 -5.765588E-09  0.000000E+00  0.000000E+00  0.000000E+00  0.000000E+00  0.000000E+00  0.000000E+00  0.000000E+00  0.000000E+00  9.475680E-01  0.000000E+00  0.000000E+00 -9.475680E-01                                                                                                                                                                                                                                                                                                                                                                                                                                                                                              
  7.600000E+02  1.250000E+02 -5.425000E+03  9.988910E-07  0.000000E+00  0.000000E+00 -9.988910E-07  5.766617E-09  0.000000E+00  0.000000E+00 -5.766617E-09  0.000000E+00  0.000000E+00  0.000000E+00  0.000000E+00  0.000000E+00  0.000000E+00  0.000000E+00  0.000000E+00  9.478232E-01  0.000000E+00  0.000000E+00 -9.478232E-01                                                                                                                                                                                                                                                                                                                                                                                                                                                                                              
  7.800000E+02  1.250000E+02 -5.425000E+03  9.989343E-07  0.000000E+00  0.000000E+00 -9.989343E-07  5.766901E-09  0.000000E+00  0.000000E+00 -5.766901E-09  0.000000E+00  0.000000E+00  0.000000E+00  0.000000E+00  0.000000E+00  0.000000E+00  0.000000E+00  0.000000E+00  9.479082E-01  0.000000E+00  0.000000E+00 -9.479082E-01                                                                                                                                                                                                                                                                                                                                                                                                                                                                                              
  8.000000E+02  1.250000E+02 -5.425000E+03  9.990052E-07  0.000000E+00  0.000000E+00 -9.990052E-07  5.767382E-09  0.000000E+00  0.000000E+00 -5.767382E-09  0.000000E+00  0.000000E+00  0.000000E+00  0.000000E+00  0.000000E+00  0.000000E+00  0.000000E+00  0.000000E+00  9.480681E-01  0.000000E+00  0.000000E+00 -9.480681E-01                                                                                                                                                                                                                                                                                                                                                                                                                                                                                              
  9.350000E+02  1.250000E+02 -5.425000E+03  9.995750E-07  0.000000E+00  0.000000E+00 -9.995750E-07  5.771252E-09  0.000000E+00  0.000000E+00 -5.771252E-09  0.000000E+00  0.000000E+00  0.000000E+00  0.000000E+00  0.000000E+00  0.000000E+00  0.000000E+00  0.000000E+00  9.493621E-01  0.000000E+00  0.000000E+00 -9.493621E-01                                                                                                                                                                                                                                                                                                                                                                                                                                                                                              
  1.185000E+03  1.250000E+02 -5.425000E+03  1.000729E-06  0.000000E+00  0.000000E+00 -1.000729E-06  5.778610E-09  0.000000E+00  0.000000E+00 -5.778610E-09  0.000000E+00  0.000000E+00  0.000000E+00  0.000000E+00  0.000000E+00  0.000000E+00  0.000000E+00  0.000000E+00  9.513685E-01  0.000000E+00  0.000000E+00 -9.513685E-01                                                                                                                                                                                                                                                                                                                                                                                                                                                                                              
  1.435000E+03  1.250000E+02 -5.425000E+03  1.002290E-06  0.000000E+00  0.000000E+00 -1.002290E-06  5.788752E-09  0.000000E+00  0.000000E+00 -5.788752E-09  0.000000E+00  0.000000E+00  0.000000E+00  0.000000E+00  0.000000E+00  0.000000E+00  0.000000E+00  0.000000E+00  9.543199E-01  0.000000E+00  0.000000E+00 -9.543199E-01                                                                                                                                                                                                                                                                                                                                                                                                                                                                                              
  1.250000E+02  1.250000E+02 -5.225000E+03  2.013657E-06  5.902687E-10  1.737608E-12 -2.013656E-06  1.140821E-08  3.346531E-12  9.853159E-15 -1.140821E-08  0.000000E+00  0.000000E+00  0.000000E+00  0.000000E+00  0.000000E+00  0.000000E+00  0.000000E+00  0.000000E+00  1.779325E+00  5.614861E-04  1.652879E-06 -1.779325E+00                                                                                                                                                                                                                                                                                                                                                                                                                                                                                              
  3.750000E+02  1.250000E+02 -5.225000E+03  2.010399E-06  1.043673E-09  7.393171E-13 -2.010399E-06  1.138575E-08  5.916259E-12  4.190845E-15 -1.138575E-08  0.000000E+00  0.000000E+00  0.000000E+00  0.000000E+00  0.000000E+00  0.000000E+00  0.000000E+00  0.000000E+00  1.772015E+00  9.921887E-04  7.023001E-07 -1.772015E+00                                                                                                                                                                                                                                                                                                                                                                                                                                                                                              
  6.250000E+02  1.250000E+02 -5.225000E+03  2.007811E-06  2.718520E-10 -1.167490E-12 -2.007811E-06  1.136772E-08  1.540899E-12 -6.615906E-15 -1.136772E-08  0.000000E+00  0.000000E+00  0.000000E+00  0.000000E+00  0.000000E+00  0.000000E+00  0.000000E+00  0.000000E+00  1.766054E+00  2.584321E-04 -1.107689E-06 -1.766054E+00                                                                                                                                                                                                                                                                                                                                                                                                                                                                                              
  7.600000E+02  1.250000E+02 -5.225000E+03  2.008093E-06 -4.171089E-10 -2.198859E-12 -2.008093E-06  1.136962E-08 -2.363719E-12 -1.246077E-14 -1.136962E-08  0.000000E+00  0.000000E+00  0.000000E+00  0.000000E+00  0.000000E+00  0.000000E+00  0.000000E+00  0.000000E+00  1.766633E+00 -3.957948E-04 -2.086448E-06 -1.766633E+00                                                                                                                                                                                                                                                                                                                                                                                                                                                                                              
  7.800000E+02  1.250000E+02 -5.225000E+03  2.008188E-06 -5.241755E-10 -2.355005E-12 -2.008188E-06  1.137028E-08 -2.970511E-12 -1.334580E-14 -1.137028E-08  0.000000E+00  0.000000E+00  0.000000E+00  0.000000E+00  0.000000E+00  0.000000E+00  0.000000E+00  0.000000E+00  1.766854E+00 -4.974270E-04 -2.234715E-06 -1.766854E+00                                                                                                                                                                                                                                                                                                                                                                                                                                                                                              
  8.000000E+02  1.250000E+02 -5.225000E+03  2.008366E-06 -6.269378E-10 -2.514757E-12 -2.008366E-06  1.137155E-08 -3.553109E-12 -1.425147E-14 -1.137155E-08  0.000000E+00  0.000000E+00  0.000000E+00  0.000000E+00  0.000000E+00  0.000000E+00  0.000000E+00  0.000000E+00  1.767293E+00 -5.952265E-04 -2.386542E-06 -1.767293E+00                                                                                                                                                                                                                                                                                                                                                                                                                                                                                              
  9.350000E+02  1.250000E+02 -5.225000E+03  2.009816E-06 -9.394820E-10 -3.600413E-12 -2.009816E-06  1.138191E-08 -5.325456E-12 -2.040818E-14 -1.138191E-08  0.000000E+00  0.000000E+00  0.000000E+00  0.000000E+00  0.000000E+00  0.000000E+00  0.000000E+00  0.000000E+00  1.770872E+00 -8.928348E-04 -3.419557E-06 -1.770872E+00                                                                                                                                                                                                                                                                                                                                                                                                                                                                                              
  1.185000E+03  1.250000E+02 -5.225000E+03  2.012177E-06 -1.329276E-09 -7.165428E-12 -2.012177E-06  1.139809E-08 -7.536917E-12 -4.062565E-14 -1.139808E-08  0.000000E+00  0.000000E+00  0.000000E+00  0.000000E+00  0.000000E+00  0.000000E+00  0.000000E+00  0.000000E+00  1.776042E+00 -1.264776E-03 -6.812037E-06 -1.776042E+00                                                                                                                                                                                                                                                                                                                                                                                                                                                                                              
  1.435000E+03  1.250000E+02 -5.225000E+03  2.016011E-06 -7.281129E-10 -1.214698E-11 -2.016011E-06  1.142439E-08 -4.128950E-12 -6.889667E-14 -1.142439E-08  0.000000E+00  0.000000E+00  0.000000E+00  0.000000E+00  0.000000E+00  0.000000E+00  0.000000E+00  0.000000E+00  1.784545E+00 -6.932653E-04 -1.156581E-05 -1.784545E+00                                                                                                                                                                                                                                                                                                                                                                                                                                                                                              
  1.250000E+02  1.250000E+02 -4.975000E+03  2.041396E-06  6.252061E-10  3.136576E-12 -2.041396E-06  1.110009E-08  3.414852E-12  1.713843E-14 -1.110009E-08  0.000000E+00  0.000000E+00  0.000000E+00  0.000000E+00  0.000000E+00  0.000000E+00  0.000000E+00  0.000000E+00  1.446041E+00  5.106562E-04  2.561895E-06 -1.446041E+00                                                                                                                                                                                                                                                                                                                                                                                                                                                                                              
  3.750000E+02  1.250000E+02 -4.975000E+03  2.036687E-06  1.072769E-09  1.998822E-12 -2.036686E-06  1.106745E-08  5.857784E-12  1.091355E-14 -1.106745E-08  0.000000E+00  0.000000E+00  0.000000E+00  0.000000E+00  0.000000E+00  0.000000E+00  0.000000E+00  0.000000E+00  1.435655E+00  8.748151E-04  1.626339E-06 -1.435655E+00                                                                                                                                                                                                                                                                                                                                                                                                                                                                                              
  6.250000E+02  1.250000E+02 -4.975000E+03  2.033240E-06  3.203294E-10  4.396888E-13 -2.033240E-06  1.104312E-08  1.748638E-12  2.399257E-15 -1.104312E-08  0.000000E+00  0.000000E+00  0.000000E+00  0.000000E+00  0.000000E+00  0.000000E+00  0.000000E+00  0.000000E+00  1.427814E+00  2.609290E-04  3.566385E-07 -1.427814E+00                                                                                                                                                                                                                                                                                                                                                                                                                                                                                              
  7.600000E+02  1.250000E+02 -4.975000E+03  2.033257E-06 -3.179877E-10 -1.313729E-13 -2.033257E-06  1.104371E-08 -1.735254E-12 -7.169035E-16 -1.104371E-08  0.000000E+00  0.000000E+00  0.000000E+00  0.000000E+00  0.000000E+00  0.000000E+00  0.000000E+00  0.000000E+00  1.428277E+00 -2.580151E-04 -1.065893E-07 -1.428277E+00                                                                                                                                                                                                                                                                                                                                                                                                                                                                                              
  7.800000E+02  1.250000E+02 -4.975000E+03  2.033362E-06 -4.450225E-10 -2.151844E-13 -2.033362E-06  1.104449E-08 -2.428564E-12 -1.174290E-15 -1.104449E-08  0.000000E+00  0.000000E+00  0.000000E+00  0.000000E+00  0.000000E+00  0.000000E+00  0.000000E+00  0.000000E+00  1.428545E+00 -3.611561E-04 -1.746099E-07 -1.428545E+00                                                                                                                                                                                                                                                                                                                                                                                                                                                                                              
  8.000000E+02  1.250000E+02 -4.975000E+03  2.033638E-06 -5.674600E-10 -2.998612E-13 -2.033638E-06  1.104640E-08 -3.097116E-12 -1.636457E-15 -1.104640E-08  0.000000E+00  0.000000E+00  0.000000E+00  0.000000E+00  0.000000E+00  0.000000E+00  0.000000E+00  0.000000E+00  1.429134E+00 -4.610530E-04 -2.433776E-07 -1.429134E+00                                                                                                                                                                                                                                                                                                                                                                                                                                                                                              
  9.350000E+02  1.250000E+02 -4.975000E+03  2.036003E-06 -7.883152E-10 -8.490786E-13 -2.036003E-06  1.106269E-08 -4.304038E-12 -4.635455E-15 -1.106269E-08  0.000000E+00  0.000000E+00  0.000000E+00  0.000000E+00  0.000000E+00  0.000000E+00  0.000000E+00  0.000000E+00  1.434086E+00 -6.420687E-04 -6.904615E-07 -1.434085E+00                                                                                                                                                                                                                                                                                                                                                                                                                                                                                              
  1.185000E+03  1.250000E+02 -4.975000E+03  2.038311E-06 -1.246116E-09 -3.598278E-12 -2.038310E-06  1.108002E-08 -6.807603E-12 -1.965450E-14 -1.108002E-08  0.000000E+00  0.000000E+00  0.000000E+00  0.000000E+00  0.000000E+00  0.000000E+00  0.000000E+00  0.000000E+00  1.440363E+00 -1.018820E-03 -2.933874E-06 -1.440363E+00                                                                                                                                                                                                                                                                                                                                                                                                                                                                                              
  1.435000E+03  1.250000E+02 -4.975000E+03  2.043945E-06 -7.709927E-10 -9.124155E-12 -2.043944E-06  1.111892E-08 -4.213077E-12 -4.988140E-14 -1.111892E-08  0.000000E+00  0.000000E+00  0.000000E+00  0.000000E+00  0.000000E+00  0.000000E+00  0.000000E+00  0.000000E+00  1.452759E+00 -6.314336E-04 -7.472944E-06 -1.452759E+00                                                                                                                                                                                                                                                                                                                                                                                                                                                                                              
  1.250000E+02  1.250000E+02 -4.725000E+03  2.068435E-06 -1.625550E-09 -3.065403E-12 -2.068434E-06  1.077302E-08 -8.446115E-12 -1.593311E-14 -1.077301E-08  0.000000E+00  0.000000E+00  0.000000E+00  0.000000E+00  0.000000E+00  0.000000E+00  0.000000E+00  0.000000E+00  1.034873E+00 -9.717373E-04 -1.844297E-06 -1.034873E+00                                                                                                                                                                                                                                                                                                                                                                                                                                                                                              
  3.750000E+02  1.250000E+02 -4.725000E+03  2.064614E-06 -2.859361E-09 -6.366692E-13 -2.064612E-06  1.074686E-08 -1.485267E-11 -3.306771E-15 -1.074685E-08  0.000000E+00  0.000000E+00  0.000000E+00  0.000000E+00  0.000000E+00  0.000000E+00  0.000000E+00  0.000000E+00  1.028799E+00 -1.705802E-03 -3.805909E-07 -1.028797E+00                                                                                                                                                                                                                                                                                                                                                                                                                                                                                              
  6.250000E+02  1.250000E+02 -4.725000E+03  2.061865E-06 -7.236135E-10  3.879129E-12 -2.061865E-06  1.072785E-08 -3.758048E-12  2.013674E-14 -1.072785E-08  0.000000E+00  0.000000E+00  0.000000E+00  0.000000E+00  0.000000E+00  0.000000E+00  0.000000E+00  0.000000E+00  1.024412E+00 -4.305192E-04  2.307916E-06 -1.024412E+00                                                                                                                                                                                                                                                                                                                                                                                                                                                                                              
  7.600000E+02  1.250000E+02 -4.725000E+03  2.062033E-06  1.187725E-09  5.793563E-12 -2.062032E-06  1.072904E-08  6.165752E-12  3.007581E-14 -1.072904E-08  0.000000E+00  0.000000E+00  0.000000E+00  0.000000E+00  0.000000E+00  0.000000E+00  0.000000E+00  0.000000E+00  1.024659E+00  7.067773E-04  3.448047E-06 -1.024659E+00                                                                                                                                                                                                                                                                                                                                                                                                                                                                                              
  7.800000E+02  1.250000E+02 -4.725000E+03  2.062126E-06  1.520599E-09  6.079476E-12 -2.062125E-06  1.072969E-08  7.893999E-12  3.156064E-14 -1.072968E-08  0.000000E+00  0.000000E+00  0.000000E+00  0.000000E+00  0.000000E+00  0.000000E+00  0.000000E+00  0.000000E+00  1.024807E+00  9.050686E-04  3.618801E-06 -1.024806E+00                                                                                                                                                                                                                                                                                                                                                                                                                                                                                              
  8.000000E+02  1.250000E+02 -4.725000E+03  2.062322E-06  1.839171E-09  6.369180E-12 -2.062321E-06  1.073106E-08  9.548938E-12  3.306589E-14 -1.073105E-08  0.000000E+00  0.000000E+00  0.000000E+00  0.000000E+00  0.000000E+00  0.000000E+00  0.000000E+00  0.000000E+00  1.025127E+00  1.094968E-03  3.792549E-06 -1.025127E+00                                                                                                                                                                                                                                                                                                                                                                                                                                                                                              
  9.350000E+02  1.250000E+02 -4.725000E+03  2.064011E-06  2.492429E-09  8.327554E-12 -2.064010E-06  1.074280E-08  1.294485E-11  4.324723E-14 -1.074279E-08  0.000000E+00  0.000000E+00  0.000000E+00  0.000000E+00  0.000000E+00  0.000000E+00  0.000000E+00  0.000000E+00  1.027876E+00  1.486725E-03  4.973140E-06 -1.027875E+00                                                                                                                                                                                                                                                                                                                                                                                                                                                                                              
  1.185000E+03  1.250000E+02 -4.725000E+03  2.066380E-06  3.461934E-09  1.594860E-11 -2.066377E-06  1.075901E-08  1.799004E-11  8.286365E-14 -1.075899E-08  0.000000E+00  0.000000E+00  0.000000E+00  0.000000E+00  0.000000E+00  0.000000E+00  0.000000E+00  0.000000E+00  1.031498E+00  2.072138E-03  9.562511E-06 -1.031496E+00                                                                                                                                                                                                                                                                                                                                                                                                                                                                                              