Title="TOUGHREACT V3.30-OMP flowvector.tec: Liq & Gas Fluxes (kg/s/m^2), Pore Velocities (m/s), & Heat Fluxes (J/s/m2)"                                                                                                                                                                                                                                                                                                                                                                                                                                                                                                                                                                                                                                                                                                         
Variables= "X(m)"     "Y(m)"      "Z(m)"     "FluxLiq"   "FluxLiq_X"   "FluxLiq_Y"   "FluxLiq_Z"   "PorVelLiq"  "PorVelLiqX"  "PorVelLiqY"  "PorVelLiqZ"     "FluxGas"   "FluxGas_X"   "FluxGas_Y"   "FluxGas_Z"   "PorVelGas"  "PorVelGasX"  "PorVelGasY"  "PorVelGasZ"    "HeatFlux"  "HeatFlux_X"  "HeatFlux_Y"  "HeatFlux_Z"                                                                                                                                                                                                                                                                                                                                                                                                                                                                                                
Zone T= "8.00000000E+10 sec" I=     9 J=    10 K=    23 F=Point
  1.250000E+02  1.250000E+02 -5.425000E+03  9.970767E-07  0.000000E+00  0.000000E+00 -9.970767E-07  5.753163E-09  0.000000E+00  0.000000E+00 -5.753163E-09  0.000000E+00  0.000000E+00  0.000000E+00  0.000000E+00  0.000000E+00  0.000000E+00  0.000000E+00  0.000000E+00  9.422461E-01  0.000000E+00  0.000000E+00 -9.422461E-01                                                                                                                                                                                                                                                                                                                                                                                                                                                                                              
  3.750000E+02  1.250000E+02 -5.425000E+03  9.957328E-07  0.000000E+00  0.000000E+00 -9.957328E-07  5.744361E-09  0.000000E+00  0.000000E+00 -5.744361E-09  0.000000E+00  0.000000E+00  0.000000E+00  0.000000E+00  0.000000E+00  0.000000E+00  0.000000E+00  0.000000E+00  9.396065E-01  0.000000E+00  0.000000E+00 -9.396065E-01                                                                                                                                                                                                                                                                                                                                                                                                                                                                                              
  6.250000E+02  1.250000E+02 -5.425000E+03  9.946300E-07  0.000000E+00  0.000000E+00 -9.946300E-07  5.737083E-09  0.000000E+00  0.000000E+00 -5.737083E-09  0.000000E+00  0.000000E+00  0.000000E+00  0.000000E+00  0.000000E+00  0.000000E+00  0.000000E+00  0.000000E+00  9.373683E-01  0.000000E+00  0.000000E+00 -9.373683E-01                                                                                                                                                                                                                                                                                                                                                                                                                                                                                              
  7.600000E+02  1.250000E+02 -5.425000E+03  9.947933E-07  0.000000E+00  0.000000E+00 -9.947933E-07  5.738102E-09  0.000000E+00  0.000000E+00 -5.738102E-09  0.000000E+00  0.000000E+00  0.000000E+00  0.000000E+00  0.000000E+00  0.000000E+00  0.000000E+00  0.000000E+00  9.376247E-01  0.000000E+00  0.000000E+00 -9.376247E-01                                                                                                                                                                                                                                                                                                                                                                                                                                                                                              
  7.800000E+02  1.250000E+02 -5.425000E+03  9.948369E-07  0.000000E+00  0.000000E+00 -9.948369E-07  5.738389E-09  0.000000E+00  0.000000E+00 -5.738389E-09  0.000000E+00  0.000000E+00  0.000000E+00  0.000000E+00  0.000000E+00  0.000000E+00  0.000000E+00  0.000000E+00  9.377114E-01  0.000000E+00  0.000000E+00 -9.377114E-01                                                                                                                                                                                                                                                                                                                                                                                                                                                                                              
  8.000000E+02  1.250000E+02 -5.425000E+03  9.949093E-07  0.000000E+00  0.000000E+00 -9.949093E-07  5.738880E-09  0.000000E+00  0.000000E+00 -5.738880E-09  0.000000E+00  0.000000E+00  0.000000E+00  0.000000E+00  0.000000E+00  0.000000E+00  0.000000E+00  0.000000E+00  9.378756E-01  0.000000E+00  0.000000E+00 -9.378756E-01                                                                                                                                                                                                                                                                                                                                                                                                                                                                                              
  9.350000E+02  1.250000E+02 -5.425000E+03  9.954915E-07  0.000000E+00  0.000000E+00 -9.954915E-07  5.742836E-09  0.000000E+00  0.000000E+00 -5.742836E-09  0.000000E+00  0.000000E+00  0.000000E+00  0.000000E+00  0.000000E+00  0.000000E+00  0.000000E+00  0.000000E+00  9.392035E-01  0.000000E+00  0.000000E+00 -9.392035E-01                                                                                                                                                                                                                                                                                                                                                                                                                                                                                              
  1.185000E+03  1.250000E+02 -5.425000E+03  9.966471E-07  0.000000E+00  0.000000E+00 -9.966471E-07  5.750228E-09  0.000000E+00  0.000000E+00 -5.750228E-09  0.000000E+00  0.000000E+00  0.000000E+00  0.000000E+00  0.000000E+00  0.000000E+00  0.000000E+00  0.000000E+00  9.412475E-01  0.000000E+00  0.000000E+00 -9.412475E-01                                                                                                                                                                                                                                                                                                                                                                                                                                                                                              
  1.435000E+03  1.250000E+02 -5.425000E+03  9.982317E-07  0.000000E+00  0.000000E+00 -9.982317E-07  5.760551E-09  0.000000E+00  0.000000E+00 -5.760551E-09  0.000000E+00  0.000000E+00  0.000000E+00  0.000000E+00  0.000000E+00  0.000000E+00  0.000000E+00  0.000000E+00  9.442876E-01  0.000000E+00  0.000000E+00 -9.442876E-01                                                                                                                                                                                                                                                                                                                                                                                                                                                                                              
  1.250000E+02  1.250000E+02 -5.225000E+03  2.005709E-06  5.724287E-10  1.832676E-12 -2.005709E-06  1.134722E-08  3.239917E-12  1.037481E-14 -1.134722E-08  0.000000E+00  0.000000E+00  0.000000E+00  0.000000E+00  0.000000E+00  0.000000E+00  0.000000E+00  0.000000E+00  1.756256E+00  5.409500E-04  1.731894E-06 -1.756256E+00                                                                                                                                                                                                                                                                                                                                                                                                                                                                                              
  3.750000E+02  1.250000E+02 -5.225000E+03  2.002419E-06  1.011585E-09  8.341561E-13 -2.002419E-06  1.132456E-08  5.724665E-12  4.720436E-15 -1.132456E-08  0.000000E+00  0.000000E+00  0.000000E+00  0.000000E+00  0.000000E+00  0.000000E+00  0.000000E+00  0.000000E+00  1.748896E+00  9.553529E-04  7.871374E-07 -1.748896E+00                                                                                                                                                                                                                                                                                                                                                                                                                                                                                              
  6.250000E+02  1.250000E+02 -5.225000E+03  1.999809E-06  2.657443E-10 -1.008810E-12 -1.999809E-06  1.130639E-08  1.503722E-12 -5.706958E-15 -1.130639E-08  0.000000E+00  0.000000E+00  0.000000E+00  0.000000E+00  0.000000E+00  0.000000E+00  0.000000E+00  0.000000E+00  1.742911E+00  2.509561E-04 -9.507340E-07 -1.742911E+00                                                                                                                                                                                                                                                                                                                                                                                                                                                                                              
  7.600000E+02  1.250000E+02 -5.225000E+03  2.000086E-06 -3.991016E-10 -1.982389E-12 -2.000086E-06  1.130827E-08 -2.257819E-12 -1.121491E-14 -1.130827E-08  0.000000E+00  0.000000E+00  0.000000E+00  0.000000E+00  0.000000E+00  0.000000E+00  0.000000E+00  0.000000E+00  1.743486E+00 -3.761764E-04 -1.868470E-06 -1.743486E+00                                                                                                                                                                                                                                                                                                                                                                                                                                                                                              
  7.800000E+02  1.250000E+02 -5.225000E+03  2.000181E-06 -5.027601E-10 -2.129916E-12 -2.000181E-06  1.130894E-08 -2.844296E-12 -1.204966E-14 -1.130893E-08  0.000000E+00  0.000000E+00  0.000000E+00  0.000000E+00  0.000000E+00  0.000000E+00  0.000000E+00  0.000000E+00  1.743708E+00 -4.739173E-04 -2.007617E-06 -1.743708E+00                                                                                                                                                                                                                                                                                                                                                                                                                                                                                              
  8.000000E+02  1.250000E+02 -5.225000E+03  2.000362E-06 -6.022623E-10 -2.282356E-12 -2.000362E-06  1.131022E-08 -3.407457E-12 -1.291240E-14 -1.131022E-08  0.000000E+00  0.000000E+00  0.000000E+00  0.000000E+00  0.000000E+00  0.000000E+00  0.000000E+00  0.000000E+00  1.744149E+00 -5.679918E-04 -2.151525E-06 -1.744148E+00                                                                                                                                                                                                                                                                                                                                                                                                                                                                                              
  9.350000E+02  1.250000E+02 -5.225000E+03  2.001831E-06 -9.029321E-10 -3.314327E-12 -2.001831E-06  1.132068E-08 -5.109603E-12 -1.875470E-14 -1.132068E-08  0.000000E+00  0.000000E+00  0.000000E+00  0.000000E+00  0.000000E+00  0.000000E+00  0.000000E+00  0.000000E+00  1.747742E+00 -8.524306E-04 -3.126934E-06 -1.747742E+00                                                                                                                                                                                                                                                                                                                                                                                                                                                                                              
  1.185000E+03  1.250000E+02 -5.225000E+03  2.004192E-06 -1.282634E-09 -6.691715E-12 -2.004191E-06  1.133687E-08 -7.260231E-12 -3.787592E-14 -1.133687E-08  0.000000E+00  0.000000E+00  0.000000E+00  0.000000E+00  0.000000E+00  0.000000E+00  0.000000E+00  0.000000E+00  1.752922E+00 -1.212428E-03 -6.319788E-06 -1.752922E+00                                                                                                                                                                                                                                                                                                                                                                                                                                                                                              
  1.435000E+03  1.250000E+02 -5.225000E+03  2.008059E-06 -7.048934E-10 -1.153588E-11 -2.008059E-06  1.136340E-08 -3.990581E-12 -6.532165E-14 -1.136340E-08  0.000000E+00  0.000000E+00  0.000000E+00  0.000000E+00  0.000000E+00  0.000000E+00  0.000000E+00  0.000000E+00  1.761491E+00 -6.668012E-04 -1.091268E-05 -1.761490E+00                                                                                                                                                                                                                                                                                                                                                                                                                                                                                              
  1.250000E+02  1.250000E+02 -4.975000E+03  2.033289E-06  5.713107E-10  3.162052E-12 -2.033289E-06  1.103396E-08  3.113277E-12  1.723770E-14 -1.103396E-08  0.000000E+00  0.000000E+00  0.000000E+00  0.000000E+00  0.000000E+00  0.000000E+00  0.000000E+00  0.000000E+00  1.421520E+00  4.610726E-04  2.551914E-06 -1.421520E+00                                                                                                                                                                                                                                                                                                                                                                                                                                                                                              
  3.750000E+02  1.250000E+02 -4.975000E+03  2.028618E-06  9.791232E-10  2.082035E-12 -2.028618E-06  1.100172E-08  5.334122E-12  1.134170E-14 -1.100172E-08  0.000000E+00  0.000000E+00  0.000000E+00  0.000000E+00  0.000000E+00  0.000000E+00  0.000000E+00  0.000000E+00  1.411412E+00  7.889187E-04  1.673777E-06 -1.411412E+00                                                                                                                                                                                                                                                                                                                                                                                                                                                                                              
  6.250000E+02  1.250000E+02 -4.975000E+03  2.025196E-06  2.975647E-10  6.955418E-13 -2.025196E-06  1.097768E-08  1.620620E-12  3.786664E-15 -1.097768E-08  0.000000E+00  0.000000E+00  0.000000E+00  0.000000E+00  0.000000E+00  0.000000E+00  0.000000E+00  0.000000E+00  1.403783E+00  2.394694E-04  5.574017E-07 -1.403783E+00                                                                                                                                                                                                                                                                                                                                                                                                                                                                                              
  7.600000E+02  1.250000E+02 -4.975000E+03  2.025217E-06 -2.787780E-10  2.119716E-13 -2.025217E-06  1.097829E-08 -1.517794E-12  1.154076E-15 -1.097829E-08  0.000000E+00  0.000000E+00  0.000000E+00  0.000000E+00  0.000000E+00  0.000000E+00  0.000000E+00  0.000000E+00  1.404235E+00 -2.234893E-04  1.699204E-07 -1.404235E+00                                                                                                                                                                                                                                                                                                                                                                                                                                                                                              
  7.800000E+02  1.250000E+02 -4.975000E+03  2.025322E-06 -3.954130E-10  1.414043E-13 -2.025322E-06  1.097906E-08 -2.152881E-12  7.698903E-16 -1.097906E-08  0.000000E+00  0.000000E+00  0.000000E+00  0.000000E+00  0.000000E+00  0.000000E+00  0.000000E+00  0.000000E+00  1.404496E+00 -3.170501E-04  1.133655E-07 -1.404496E+00                                                                                                                                                                                                                                                                                                                                                                                                                                                                                              
  8.000000E+02  1.250000E+02 -4.975000E+03  2.025595E-06 -5.078651E-10  7.018484E-14 -2.025595E-06  1.098095E-08 -2.765485E-12  3.821455E-16 -1.098095E-08  0.000000E+00  0.000000E+00  0.000000E+00  0.000000E+00  0.000000E+00  0.000000E+00  0.000000E+00  0.000000E+00  1.405068E+00 -4.076914E-04  5.628127E-08 -1.405068E+00                                                                                                                                                                                                                                                                                                                                                                                                                                                                                              
  9.350000E+02  1.250000E+02 -4.975000E+03  2.027940E-06 -7.026163E-10 -3.882807E-13 -2.027940E-06  1.099702E-08 -3.827299E-12 -2.114896E-15 -1.099702E-08  0.000000E+00  0.000000E+00  0.000000E+00  0.000000E+00  0.000000E+00  0.000000E+00  0.000000E+00  0.000000E+00  1.409885E+00 -5.654210E-04 -3.119651E-07 -1.409885E+00                                                                                                                                                                                                                                                                                                                                                                                                                                                                                              
  1.185000E+03  1.250000E+02 -4.975000E+03  2.030244E-06 -1.123785E-09 -2.792887E-12 -2.030244E-06  1.101421E-08 -6.125145E-12 -1.522007E-14 -1.101420E-08  0.000000E+00  0.000000E+00  0.000000E+00  0.000000E+00  0.000000E+00  0.000000E+00  0.000000E+00  0.000000E+00  1.415995E+00 -9.078826E-04 -2.249985E-06 -1.415995E+00                                                                                                                                                                                                                                                                                                                                                                                                                                                                                              
  1.435000E+03  1.250000E+02 -4.975000E+03  2.035830E-06 -7.021509E-10 -7.889950E-12 -2.035830E-06  1.105262E-08 -3.828019E-12 -4.303414E-14 -1.105262E-08  0.000000E+00  0.000000E+00  0.000000E+00  0.000000E+00  0.000000E+00  0.000000E+00  0.000000E+00  0.000000E+00  1.428060E+00 -5.682155E-04 -6.385264E-06 -1.428060E+00                                                                                                                                                                                                                                                                                                                                                                                                                                                                                              
  1.250000E+02  1.250000E+02 -4.725000E+03  2.059368E-06 -1.567898E-09 -2.901752E-12 -2.059367E-06  1.071043E-08 -8.132970E-12 -1.505703E-14 -1.071042E-08  0.000000E+00  0.000000E+00  0.000000E+00  0.000000E+00  0.000000E+00  0.000000E+00  0.000000E+00  0.000000E+00  1.021406E+00 -9.238074E-04 -1.720393E-06 -1.021406E+00                                                                                                                                                                                                                                                                                                                                                                                                                                                                                              
  3.750000E+02  1.250000E+02 -4.725000E+03  2.055591E-06 -2.756034E-09 -5.557545E-13 -2.055589E-06  1.068482E-08 -1.429229E-11 -2.881756E-15 -1.068481E-08  0.000000E+00  0.000000E+00  0.000000E+00  0.000000E+00  0.000000E+00  0.000000E+00  0.000000E+00  0.000000E+00  1.015588E+00 -1.620651E-03 -3.274483E-07 -1.015587E+00                                                                                                                                                                                                                                                                                                                                                                                                                                                                                              
  6.250000E+02  1.250000E+02 -4.725000E+03  2.052863E-06 -6.963256E-10  3.777417E-12 -2.052863E-06  1.066615E-08 -3.610390E-12  1.957704E-14 -1.066615E-08  0.000000E+00  0.000000E+00  0.000000E+00  0.000000E+00  0.000000E+00  0.000000E+00  0.000000E+00  0.000000E+00  1.011379E+00 -4.083956E-04  2.215458E-06 -1.011379E+00                                                                                                                                                                                                                                                                                                                                                                                                                                                                                              
  7.600000E+02  1.250000E+02 -4.725000E+03  2.053034E-06  1.145023E-09  5.640121E-12 -2.053034E-06  1.066734E-08  5.934451E-12  2.923183E-14 -1.066734E-08  0.000000E+00  0.000000E+00  0.000000E+00  0.000000E+00  0.000000E+00  0.000000E+00  0.000000E+00  0.000000E+00  1.011618E+00  6.716768E-04  3.308970E-06 -1.011617E+00                                                                                                                                                                                                                                                                                                                                                                                                                                                                                              
  7.800000E+02  1.250000E+02 -4.725000E+03  2.053127E-06  1.466138E-09  5.918136E-12 -2.053126E-06  1.066798E-08  7.598937E-12  3.067328E-14 -1.066798E-08  0.000000E+00  0.000000E+00  0.000000E+00  0.000000E+00  0.000000E+00  0.000000E+00  0.000000E+00  0.000000E+00  1.011759E+00  8.602355E-04  3.472626E-06 -1.011759E+00                                                                                                                                                                                                                                                                                                                                                                                                                                                                                              
  8.000000E+02  1.250000E+02 -4.725000E+03  2.053321E-06  1.773474E-09  6.196877E-12 -2.053320E-06  1.066932E-08  9.192854E-12  3.211916E-14 -1.066932E-08  0.000000E+00  0.000000E+00  0.000000E+00  0.000000E+00  0.000000E+00  0.000000E+00  0.000000E+00  0.000000E+00  1.012067E+00  1.040821E-03  3.637393E-06 -1.012066E+00                                                                                                                                                                                                                                                                                                                                                                                                                                                                                              
  9.350000E+02  1.250000E+02 -4.725000E+03  2.054995E-06  2.401357E-09  8.066176E-12 -2.054994E-06  1.068083E-08  1.245133E-11  4.182109E-14 -1.068083E-08  0.000000E+00  0.000000E+00  0.000000E+00  0.000000E+00  0.000000E+00  0.000000E+00  0.000000E+00  0.000000E+00  1.014704E+00  1.411919E-03  4.748002E-06 -1.014703E+00                                                                                                                                                                                                                                                                                                                                                                                                                                                                                              
  1.185000E+03  1.250000E+02 -4.725000E+03  2.057358E-06  3.340025E-09  1.542135E-11 -2.057355E-06  1.069682E-08  1.732744E-11  7.999063E-14 -1.069680E-08  0.000000E+00  0.000000E+00  0.000000E+00  0.000000E+00  0.000000E+00  0.000000E+00  0.000000E+00  0.000000E+00  1.018185E+00  1.970365E-03  9.112579E-06 -1.018183E+00                                                                                                                                                                                                                                                                                                                                                                                                                                                                                              