Title="TOUGHREACT V3.30-OMP flowvector.tec: Liq & Gas Fluxes (kg/s/m^2), Pore Velocities (m/s), & Heat Fluxes (J/s/m2)"                                                                                                                                                                                                                                                                                                                                                                                                                                                                                                                                                                                                                                                                                                         
Variables= "X(m)"     "Y(m)"      "Z(m)"     "FluxLiq"   "FluxLiq_X"   "FluxLiq_Y"   "FluxLiq_Z"   "PorVelLiq"  "PorVelLiqX"  "PorVelLiqY"  "PorVelLiqZ"     "FluxGas"   "FluxGas_X"   "FluxGas_Y"   "FluxGas_Z"   "PorVelGas"  "PorVelGasX"  "PorVelGasY"  "PorVelGasZ"    "HeatFlux"  "HeatFlux_X"  "HeatFlux_Y"  "HeatFlux_Z"                                                                                                                                                                                                                                                                                                                                                                                                                                                                                                
Zone T= "9.66000000E+10 sec" I=     9 J=    10 K=    23 F=Point
  1.250000E+02  1.250000E+02 -5.425000E+03  9.776360E-07  0.000000E+00  0.000000E+00 -9.776360E-07  5.617296E-09  0.000000E+00  0.000000E+00 -5.617296E-09  0.000000E+00  0.000000E+00  0.000000E+00  0.000000E+00  0.000000E+00  0.000000E+00  0.000000E+00  0.000000E+00  8.926337E-01  0.000000E+00  0.000000E+00 -8.926337E-01                                                                                                                                                                                                                                                                                                                                                                                                                                                                                              
  3.750000E+02  1.250000E+02 -5.425000E+03  9.761947E-07  0.000000E+00  0.000000E+00 -9.761947E-07  5.607819E-09  0.000000E+00  0.000000E+00 -5.607819E-09  0.000000E+00  0.000000E+00  0.000000E+00  0.000000E+00  0.000000E+00  0.000000E+00  0.000000E+00  0.000000E+00  8.897087E-01  0.000000E+00  0.000000E+00 -8.897087E-01                                                                                                                                                                                                                                                                                                                                                                                                                                                                                              
  6.250000E+02  1.250000E+02 -5.425000E+03  9.750170E-07  0.000000E+00  0.000000E+00 -9.750170E-07  5.600039E-09  0.000000E+00  0.000000E+00 -5.600039E-09  0.000000E+00  0.000000E+00  0.000000E+00  0.000000E+00  0.000000E+00  0.000000E+00  0.000000E+00  0.000000E+00  8.872687E-01  0.000000E+00  0.000000E+00 -8.872687E-01                                                                                                                                                                                                                                                                                                                                                                                                                                                                                              
  7.600000E+02  1.250000E+02 -5.425000E+03  9.751681E-07  0.000000E+00  0.000000E+00 -9.751681E-07  5.600995E-09  0.000000E+00  0.000000E+00 -5.600995E-09  0.000000E+00  0.000000E+00  0.000000E+00  0.000000E+00  0.000000E+00  0.000000E+00  0.000000E+00  0.000000E+00  8.875257E-01  0.000000E+00  0.000000E+00 -8.875257E-01                                                                                                                                                                                                                                                                                                                                                                                                                                                                                              
  7.800000E+02  1.250000E+02 -5.425000E+03  9.752129E-07  0.000000E+00  0.000000E+00 -9.752129E-07  5.601291E-09  0.000000E+00  0.000000E+00 -5.601291E-09  0.000000E+00  0.000000E+00  0.000000E+00  0.000000E+00  0.000000E+00  0.000000E+00  0.000000E+00  0.000000E+00  8.876180E-01  0.000000E+00  0.000000E+00 -8.876180E-01                                                                                                                                                                                                                                                                                                                                                                                                                                                                                              
  8.000000E+02  1.250000E+02 -5.425000E+03  9.752920E-07  0.000000E+00  0.000000E+00 -9.752920E-07  5.601826E-09  0.000000E+00  0.000000E+00 -5.601826E-09  0.000000E+00  0.000000E+00  0.000000E+00  0.000000E+00  0.000000E+00  0.000000E+00  0.000000E+00  0.000000E+00  8.877978E-01  0.000000E+00  0.000000E+00 -8.877978E-01                                                                                                                                                                                                                                                                                                                                                                                                                                                                                              
  9.350000E+02  1.250000E+02 -5.425000E+03  9.759292E-07  0.000000E+00  0.000000E+00 -9.759292E-07  5.606134E-09  0.000000E+00  0.000000E+00 -5.606134E-09  0.000000E+00  0.000000E+00  0.000000E+00  0.000000E+00  0.000000E+00  0.000000E+00  0.000000E+00  0.000000E+00  8.892500E-01  0.000000E+00  0.000000E+00 -8.892500E-01                                                                                                                                                                                                                                                                                                                                                                                                                                                                                              
  1.185000E+03  1.250000E+02 -5.425000E+03  9.770838E-07  0.000000E+00  0.000000E+00 -9.770838E-07  5.613595E-09  0.000000E+00  0.000000E+00 -5.613595E-09  0.000000E+00  0.000000E+00  0.000000E+00  0.000000E+00  0.000000E+00  0.000000E+00  0.000000E+00  0.000000E+00  8.914204E-01  0.000000E+00  0.000000E+00 -8.914204E-01                                                                                                                                                                                                                                                                                                                                                                                                                                                                                              
  1.435000E+03  1.250000E+02 -5.425000E+03  9.787710E-07  0.000000E+00  0.000000E+00 -9.787710E-07  5.624656E-09  0.000000E+00  0.000000E+00 -5.624656E-09  0.000000E+00  0.000000E+00  0.000000E+00  0.000000E+00  0.000000E+00  0.000000E+00  0.000000E+00  0.000000E+00  8.947996E-01  0.000000E+00  0.000000E+00 -8.947996E-01                                                                                                                                                                                                                                                                                                                                                                                                                                                                                              
  1.250000E+02  1.250000E+02 -5.225000E+03  1.967290E-06  4.777709E-10  2.029270E-12 -1.967289E-06  1.105417E-08  2.681291E-12  1.139094E-14 -1.105417E-08  0.000000E+00  0.000000E+00  0.000000E+00  0.000000E+00  0.000000E+00  0.000000E+00  0.000000E+00  0.000000E+00  1.646000E+00  4.362303E-04  1.852832E-06 -1.646000E+00                                                                                                                                                                                                                                                                                                                                                                                                                                                                                              
  3.750000E+02  1.250000E+02 -5.225000E+03  1.963881E-06  8.421762E-10  1.260477E-12 -1.963881E-06  1.103088E-08  4.725557E-12  7.072430E-15 -1.103088E-08  0.000000E+00  0.000000E+00  0.000000E+00  0.000000E+00  0.000000E+00  0.000000E+00  0.000000E+00  0.000000E+00  1.638580E+00  7.683511E-04  1.148805E-06 -1.638580E+00                                                                                                                                                                                                                                                                                                                                                                                                                                                                                              
  6.250000E+02  1.250000E+02 -5.225000E+03  1.961185E-06  2.325041E-10 -9.104156E-14 -1.961185E-06  1.101233E-08  1.304436E-12 -5.106411E-16 -1.101233E-08  0.000000E+00  0.000000E+00  0.000000E+00  0.000000E+00  0.000000E+00  0.000000E+00  0.000000E+00  0.000000E+00  1.632614E+00  2.120741E-04 -8.284830E-08 -1.632614E+00                                                                                                                                                                                                                                                                                                                                                                                                                                                                                              
  7.600000E+02  1.250000E+02 -5.225000E+03  1.961438E-06 -3.070496E-10 -7.787489E-13 -1.961438E-06  1.101405E-08 -1.722253E-12 -4.368047E-15 -1.101405E-08  0.000000E+00  0.000000E+00  0.000000E+00  0.000000E+00  0.000000E+00  0.000000E+00  0.000000E+00  0.000000E+00  1.633160E+00 -2.794630E-04 -7.087617E-07 -1.633160E+00                                                                                                                                                                                                                                                                                                                                                                                                                                                                                              
  7.800000E+02  1.250000E+02 -5.225000E+03  1.961534E-06 -3.928549E-10 -8.813065E-13 -1.961534E-06  1.101472E-08 -2.203585E-12 -4.943366E-15 -1.101472E-08  0.000000E+00  0.000000E+00  0.000000E+00  0.000000E+00  0.000000E+00  0.000000E+00  0.000000E+00  0.000000E+00  1.633378E+00 -3.575922E-04 -8.021491E-07 -1.633378E+00                                                                                                                                                                                                                                                                                                                                                                                                                                                                                              
  8.000000E+02  1.250000E+02 -5.225000E+03  1.961724E-06 -4.752526E-10 -9.882006E-13 -1.961724E-06  1.101605E-08 -2.665976E-12 -5.543109E-15 -1.101605E-08  0.000000E+00  0.000000E+00  0.000000E+00  0.000000E+00  0.000000E+00  0.000000E+00  0.000000E+00  0.000000E+00  1.633818E+00 -4.328475E-04 -8.995517E-07 -1.633818E+00                                                                                                                                                                                                                                                                                                                                                                                                                                                                                              
  9.350000E+02  1.250000E+02 -5.225000E+03  1.963272E-06 -7.145863E-10 -1.701785E-12 -1.963272E-06  1.102688E-08 -4.009452E-12 -9.548034E-15 -1.102688E-08  0.000000E+00  0.000000E+00  0.000000E+00  0.000000E+00  0.000000E+00  0.000000E+00  0.000000E+00  0.000000E+00  1.637407E+00 -6.516420E-04 -1.550643E-06 -1.637407E+00                                                                                                                                                                                                                                                                                                                                                                                                                                                                                              
  1.185000E+03  1.250000E+02 -5.225000E+03  1.965608E-06 -1.039752E-09 -4.315262E-12 -1.965608E-06  1.104288E-08 -5.835743E-12 -2.421841E-14 -1.104288E-08  0.000000E+00  0.000000E+00  0.000000E+00  0.000000E+00  0.000000E+00  0.000000E+00  0.000000E+00  0.000000E+00  1.642516E+00 -9.496894E-04 -3.936964E-06 -1.642516E+00                                                                                                                                                                                                                                                                                                                                                                                                                                                                                              
  1.435000E+03  1.250000E+02 -5.225000E+03  1.969604E-06 -5.827114E-10 -8.318006E-12 -1.969604E-06  1.107013E-08 -3.271105E-12 -4.670579E-14 -1.107013E-08  0.000000E+00  0.000000E+00  0.000000E+00  0.000000E+00  0.000000E+00  0.000000E+00  0.000000E+00  0.000000E+00  1.651182E+00 -5.327190E-04 -7.604552E-06 -1.651182E+00                                                                                                                                                                                                                                                                                                                                                                                                                                                                                              
  1.250000E+02  1.250000E+02 -4.975000E+03  1.993578E-06  3.264759E-10  2.904458E-12 -1.993578E-06  1.071992E-08  1.760380E-12  1.566654E-14 -1.071992E-08  0.000000E+00  0.000000E+00  0.000000E+00  0.000000E+00  0.000000E+00  0.000000E+00  0.000000E+00  0.000000E+00  1.311352E+00  2.485273E-04  2.210996E-06 -1.311352E+00                                                                                                                                                                                                                                                                                                                                                                                                                                                                                              
  3.750000E+02  1.250000E+02 -4.975000E+03  1.989136E-06  5.527887E-10  2.336909E-12 -1.989136E-06  1.068987E-08  2.979929E-12  1.259660E-14 -1.068987E-08  0.000000E+00  0.000000E+00  0.000000E+00  0.000000E+00  0.000000E+00  0.000000E+00  0.000000E+00  0.000000E+00  1.302543E+00  4.201195E-04  1.771863E-06 -1.302543E+00                                                                                                                                                                                                                                                                                                                                                                                                                                                                                              
  6.250000E+02  1.250000E+02 -4.975000E+03  1.985869E-06  1.942650E-10  1.828312E-12 -1.985869E-06  1.066744E-08  1.046892E-12  9.849796E-15 -1.066744E-08  0.000000E+00  0.000000E+00  0.000000E+00  0.000000E+00  0.000000E+00  0.000000E+00  0.000000E+00  0.000000E+00  1.295903E+00  1.473636E-04  1.381837E-06 -1.295903E+00                                                                                                                                                                                                                                                                                                                                                                                                                                                                                              
  7.600000E+02  1.250000E+02 -4.975000E+03  1.985909E-06 -9.838997E-11  1.781055E-12 -1.985909E-06  1.066809E-08 -5.300878E-13  9.595669E-15 -1.066809E-08  0.000000E+00  0.000000E+00  0.000000E+00  0.000000E+00  0.000000E+00  0.000000E+00  0.000000E+00  0.000000E+00  1.296297E+00 -7.439009E-05  1.346503E-06 -1.296297E+00                                                                                                                                                                                                                                                                                                                                                                                                                                                                                              
  7.800000E+02  1.250000E+02 -4.975000E+03  1.986011E-06 -1.672744E-10  1.777753E-12 -1.986011E-06  1.066882E-08 -9.012371E-13  9.578069E-15 -1.066882E-08  0.000000E+00  0.000000E+00  0.000000E+00  0.000000E+00  0.000000E+00  0.000000E+00  0.000000E+00  0.000000E+00  1.296525E+00 -1.264947E-04  1.344163E-06 -1.296525E+00                                                                                                                                                                                                                                                                                                                                                                                                                                                                                              
  8.000000E+02  1.250000E+02 -4.975000E+03  1.986270E-06 -2.338585E-10  1.773668E-12 -1.986270E-06  1.067057E-08 -1.260122E-12  9.556448E-15 -1.067057E-08  0.000000E+00  0.000000E+00  0.000000E+00  0.000000E+00  0.000000E+00  0.000000E+00  0.000000E+00  0.000000E+00  1.297023E+00 -1.770579E-04  1.341393E-06 -1.297023E+00                                                                                                                                                                                                                                                                                                                                                                                                                                                                                              
  9.350000E+02  1.250000E+02 -4.975000E+03  1.988493E-06 -3.115863E-10  1.779867E-12 -1.988493E-06  1.068549E-08 -1.679461E-12  9.593007E-15 -1.068549E-08  0.000000E+00  0.000000E+00  0.000000E+00  0.000000E+00  0.000000E+00  0.000000E+00  0.000000E+00  0.000000E+00  1.301211E+00 -2.364733E-04  1.348690E-06 -1.301211E+00                                                                                                                                                                                                                                                                                                                                                                                                                                                                                              
  1.185000E+03  1.250000E+02 -4.975000E+03  1.990746E-06 -5.711684E-10  8.821783E-13 -1.990745E-06  1.070177E-08 -3.080466E-12  4.756922E-15 -1.070177E-08  0.000000E+00  0.000000E+00  0.000000E+00  0.000000E+00  0.000000E+00  0.000000E+00  0.000000E+00  0.000000E+00  1.306537E+00 -4.353818E-04  6.702927E-07 -1.306537E+00                                                                                                                                                                                                                                                                                                                                                                                                                                                                                              
  1.435000E+03  1.250000E+02 -4.975000E+03  1.996055E-06 -3.925085E-10 -2.033337E-12 -1.996055E-06  1.073759E-08 -2.117321E-12 -1.097310E-14 -1.073759E-08  0.000000E+00  0.000000E+00  0.000000E+00  0.000000E+00  0.000000E+00  0.000000E+00  0.000000E+00  0.000000E+00  1.317059E+00 -2.996332E-04 -1.552290E-06 -1.317059E+00                                                                                                                                                                                                                                                                                                                                                                                                                                                                                              
  1.250000E+02  1.250000E+02 -4.725000E+03  2.015372E-06 -1.305257E-09 -2.141076E-12 -2.015372E-06  1.041695E-08 -6.724120E-12 -1.103276E-14 -1.041695E-08  0.000000E+00  0.000000E+00  0.000000E+00  0.000000E+00  0.000000E+00  0.000000E+00  0.000000E+00  0.000000E+00  9.625681E-01 -7.216364E-04 -1.190002E-06 -9.625678E-01                                                                                                                                                                                                                                                                                                                                                                                                                                                                                              
  3.750000E+02  1.250000E+02 -4.725000E+03  2.011849E-06 -2.291205E-09 -1.615826E-13 -2.011848E-06  1.039399E-08 -1.180094E-11 -8.321744E-16 -1.039398E-08  0.000000E+00  0.000000E+00  0.000000E+00  0.000000E+00  0.000000E+00  0.000000E+00  0.000000E+00  0.000000E+00  9.578316E-01 -1.264620E-03 -8.933340E-08 -9.578308E-01                                                                                                                                                                                                                                                                                                                                                                                                                                                                                              
  6.250000E+02  1.250000E+02 -4.725000E+03  2.009285E-06 -5.738031E-10  3.473205E-12 -2.009284E-06  1.037717E-08 -2.955010E-12  1.788054E-14 -1.037717E-08  0.000000E+00  0.000000E+00  0.000000E+00  0.000000E+00  0.000000E+00  0.000000E+00  0.000000E+00  0.000000E+00  9.543912E-01 -3.160062E-04  1.912772E-06 -9.543912E-01                                                                                                                                                                                                                                                                                                                                                                                                                                                                                              
  7.600000E+02  1.250000E+02 -4.725000E+03  2.009463E-06  9.591963E-10  5.023491E-12 -2.009462E-06  1.037833E-08  4.938196E-12  2.586231E-14 -1.037833E-08  0.000000E+00  0.000000E+00  0.000000E+00  0.000000E+00  0.000000E+00  0.000000E+00  0.000000E+00  0.000000E+00  9.545927E-01  5.283272E-04  2.767250E-06 -9.545926E-01                                                                                                                                                                                                                                                                                                                                                                                                                                                                                              
  7.800000E+02  1.250000E+02 -4.725000E+03  2.009551E-06  1.227607E-09  5.254294E-12 -2.009551E-06  1.037891E-08  6.320175E-12  2.705091E-14 -1.037891E-08  0.000000E+00  0.000000E+00  0.000000E+00  0.000000E+00  0.000000E+00  0.000000E+00  0.000000E+00  0.000000E+00  9.547092E-01  6.762921E-04  2.894777E-06 -9.547090E-01                                                                                                                                                                                                                                                                                                                                                                                                                                                                                              
  8.000000E+02  1.250000E+02 -4.725000E+03  2.009733E-06  1.484458E-09  5.486734E-12 -2.009732E-06  1.038012E-08  7.643179E-12  2.824839E-14 -1.038011E-08  0.000000E+00  0.000000E+00  0.000000E+00  0.000000E+00  0.000000E+00  0.000000E+00  0.000000E+00  0.000000E+00  9.549602E-01  8.179657E-04  3.023691E-06 -9.549598E-01                                                                                                                                                                                                                                                                                                                                                                                                                                                                                              
  9.350000E+02  1.250000E+02 -4.725000E+03  2.011297E-06  1.999911E-09  7.049272E-12 -2.011296E-06  1.039043E-08  1.029955E-11  3.630185E-14 -1.039043E-08  0.000000E+00  0.000000E+00  0.000000E+00  0.000000E+00  0.000000E+00  0.000000E+00  0.000000E+00  0.000000E+00  9.571139E-01  1.103721E-03  3.894152E-06 -9.571133E-01                                                                                                                                                                                                                                                                                                                                                                                                                                                                                              
  1.185000E+03  1.250000E+02 -4.725000E+03  2.013574E-06  2.783419E-09  1.319524E-11 -2.013572E-06  1.040514E-08  1.434030E-11  6.797429E-14 -1.040513E-08  0.000000E+00  0.000000E+00  0.000000E+00  0.000000E+00  0.000000E+00  0.000000E+00  0.000000E+00  0.000000E+00  9.599844E-01  1.540457E-03  7.312942E-06 -9.599831E-01                                                                                                                                                                                                                                                                                                                                                                                                                                                                                              