Title="TOUGHREACT V3.30-OMP flowdata.tec: P,T,SAT & Other Variables"                                                                                                                                                                                                                                                                                                                                                                                                                                                                                                                                                                                                                                                                                                                                                            
Variables= "X(m)"     "Y(m)"      "Z(m)"       "P(Pa)"        "T(C)"      "SatGas"      "SatLiq"          "X1"          "X2"    "Pcap(Pa)"  "DGas_kg/m3"  "DLiq_kg/m3"    "Porosity"  "Perm_X(m2)"  "Perm_Y(m2)"  "Perm_Z(m2)"    "Krel_Gas"    "Krel_Liq"                                                                                                                                                                                                                                                                                                                                                                                                                                                                                                                                                                      
Zone T= "6.66000000E+10 sec" I=     9 J=    10 K=    23 F=Point
  1.250000E+02  1.250000E+02 -5.425000E+03  5.186868E+07  2.467375E+02  0.000000E+00  1.000000E+00  1.000000E+00  0.000000E+00  0.000000E+00  1.887981E+01  8.480308E+02  2.000000E-01  1.000000E-16  1.000000E-16  1.000000E-16  0.000000E+00  1.000000E+00                                                                                                                                                                                                                                                                                                                                                                                                                                                                                                                                                                    
  3.750000E+02  1.250000E+02 -5.425000E+03  5.186868E+07  2.467375E+02  0.000000E+00  1.000000E+00  1.000000E+00  0.000000E+00  0.000000E+00  1.887981E+01  8.480308E+02  2.000000E-01  1.000000E-16  1.000000E-16  1.000000E-16  0.000000E+00  1.000000E+00                                                                                                                                                                                                                                                                                                                                                                                                                                                                                                                                                                    
  6.250000E+02  1.250000E+02 -5.425000E+03  5.186868E+07  2.467375E+02  0.000000E+00  1.000000E+00  1.000000E+00  0.000000E+00  0.000000E+00  1.887981E+01  8.480308E+02  2.000000E-01  1.000000E-16  1.000000E-16  1.000000E-16  0.000000E+00  1.000000E+00                                                                                                                                                                                                                                                                                                                                                                                                                                                                                                                                                                    
  7.600000E+02  1.250000E+02 -5.425000E+03  5.186868E+07  2.467375E+02  0.000000E+00  1.000000E+00  1.000000E+00  0.000000E+00  0.000000E+00  1.887981E+01  8.480308E+02  2.000000E-01  1.000000E-16  1.000000E-16  1.000000E-16  0.000000E+00  1.000000E+00                                                                                                                                                                                                                                                                                                                                                                                                                                                                                                                                                                    
  7.800000E+02  1.250000E+02 -5.425000E+03  5.186868E+07  2.467375E+02  0.000000E+00  1.000000E+00  1.000000E+00  0.000000E+00  0.000000E+00  1.887981E+01  8.480308E+02  2.000000E-01  1.000000E-16  1.000000E-16  1.000000E-16  0.000000E+00  1.000000E+00                                                                                                                                                                                                                                                                                                                                                                                                                                                                                                                                                                    
  8.000000E+02  1.250000E+02 -5.425000E+03  5.186868E+07  2.467375E+02  0.000000E+00  1.000000E+00  1.000000E+00  0.000000E+00  0.000000E+00  1.887981E+01  8.480308E+02  2.000000E-01  1.000000E-16  1.000000E-16  1.000000E-16  0.000000E+00  1.000000E+00                                                                                                                                                                                                                                                                                                                                                                                                                                                                                                                                                                    
  9.350000E+02  1.250000E+02 -5.425000E+03  5.186868E+07  2.467375E+02  0.000000E+00  1.000000E+00  1.000000E+00  0.000000E+00  0.000000E+00  1.887981E+01  8.480308E+02  2.000000E-01  1.000000E-16  1.000000E-16  1.000000E-16  0.000000E+00  1.000000E+00                                                                                                                                                                                                                                                                                                                                                                                                                                                                                                                                                                    
  1.185000E+03  1.250000E+02 -5.425000E+03  5.186868E+07  2.467375E+02  0.000000E+00  1.000000E+00  1.000000E+00  0.000000E+00  0.000000E+00  1.887981E+01  8.480308E+02  2.000000E-01  1.000000E-16  1.000000E-16  1.000000E-16  0.000000E+00  1.000000E+00                                                                                                                                                                                                                                                                                                                                                                                                                                                                                                                                                                    
  1.435000E+03  1.250000E+02 -5.425000E+03  5.186868E+07  2.467375E+02  0.000000E+00  1.000000E+00  1.000000E+00  0.000000E+00  0.000000E+00  1.887981E+01  8.480308E+02  2.000000E-01  1.000000E-16  1.000000E-16  1.000000E-16  0.000000E+00  1.000000E+00                                                                                                                                                                                                                                                                                                                                                                                                                                                                                                                                                                    
  1.250000E+02  1.250000E+02 -5.225000E+03  5.080126E+07  2.215491E+02  0.000000E+00  1.000000E+00  1.000000E+00  0.000000E+00  0.000000E+00  1.196673E+01  8.755167E+02  2.004665E-01  1.000000E-16  1.000000E-16  1.000000E-16  0.000000E+00  1.000000E+00                                                                                                                                                                                                                                                                                                                                                                                                                                                                                                                                                                    
  3.750000E+02  1.250000E+02 -5.225000E+03  5.080078E+07  2.212994E+02  0.000000E+00  1.000000E+00  1.000000E+00  0.000000E+00  0.000000E+00  1.191074E+01  8.757843E+02  2.004647E-01  1.000000E-16  1.000000E-16  1.000000E-16  0.000000E+00  1.000000E+00                                                                                                                                                                                                                                                                                                                                                                                                                                                                                                                                                                    
  6.250000E+02  1.250000E+02 -5.225000E+03  5.080040E+07  2.210727E+02  0.000000E+00  1.000000E+00  1.000000E+00  0.000000E+00  0.000000E+00  1.186008E+01  8.760271E+02  2.004631E-01  1.000000E-16  1.000000E-16  1.000000E-16  0.000000E+00  1.000000E+00                                                                                                                                                                                                                                                                                                                                                                                                                                                                                                                                                                    
  7.600000E+02  1.250000E+02 -5.225000E+03  5.080049E+07  2.210916E+02  0.000000E+00  1.000000E+00  1.000000E+00  0.000000E+00  0.000000E+00  1.186429E+01  8.760069E+02  2.004633E-01  1.000000E-16  1.000000E-16  1.000000E-16  0.000000E+00  1.000000E+00                                                                                                                                                                                                                                                                                                                                                                                                                                                                                                                                                                    
  7.800000E+02  1.250000E+02 -5.225000E+03  5.080050E+07  2.211003E+02  0.000000E+00  1.000000E+00  1.000000E+00  0.000000E+00  0.000000E+00  1.186624E+01  8.759976E+02  2.004634E-01  1.000000E-16  1.000000E-16  1.000000E-16  0.000000E+00  1.000000E+00                                                                                                                                                                                                                                                                                                                                                                                                                                                                                                                                                                    
  8.000000E+02  1.250000E+02 -5.225000E+03  5.080052E+07  2.211188E+02  0.000000E+00  1.000000E+00  1.000000E+00  0.000000E+00  0.000000E+00  1.187036E+01  8.759778E+02  2.004635E-01  1.000000E-16  1.000000E-16  1.000000E-16  0.000000E+00  1.000000E+00                                                                                                                                                                                                                                                                                                                                                                                                                                                                                                                                                                    
  9.350000E+02  1.250000E+02 -5.225000E+03  5.080068E+07  2.212698E+02  0.000000E+00  1.000000E+00  1.000000E+00  0.000000E+00  0.000000E+00  1.190410E+01  8.758160E+02  2.004645E-01  1.000000E-16  1.000000E-16  1.000000E-16  0.000000E+00  1.000000E+00                                                                                                                                                                                                                                                                                                                                                                                                                                                                                                                                                                    
  1.185000E+03  1.250000E+02 -5.225000E+03  5.080118E+07  2.214435E+02  0.000000E+00  1.000000E+00  1.000000E+00  0.000000E+00  0.000000E+00  1.194302E+01  8.756300E+02  2.004659E-01  1.000000E-16  1.000000E-16  1.000000E-16  0.000000E+00  1.000000E+00                                                                                                                                                                                                                                                                                                                                                                                                                                                                                                                                                                    
  1.435000E+03  1.250000E+02 -5.225000E+03  5.080178E+07  2.217190E+02  0.000000E+00  1.000000E+00  1.000000E+00  0.000000E+00  0.000000E+00  1.200496E+01  8.753346E+02  2.004679E-01  1.000000E-16  1.000000E-16  1.000000E-16  0.000000E+00  1.000000E+00                                                                                                                                                                                                                                                                                                                                                                                                                                                                                                                                                                    
  1.250000E+02  1.250000E+02 -4.975000E+03  4.948480E+07  1.931625E+02  0.000000E+00  1.000000E+00  1.000000E+00  0.000000E+00  0.000000E+00  6.834904E+00  9.037598E+02  2.010813E-01  1.000000E-16  1.000000E-16  1.000000E-16  0.000000E+00  1.000000E+00                                                                                                                                                                                                                                                                                                                                                                                                                                                                                                                                                                    
  3.750000E+02  1.250000E+02 -4.975000E+03  4.948414E+07  1.924392E+02  0.000000E+00  1.000000E+00  1.000000E+00  0.000000E+00  0.000000E+00  6.732740E+00  9.044636E+02  2.010765E-01  1.000000E-16  1.000000E-16  1.000000E-16  0.000000E+00  1.000000E+00                                                                                                                                                                                                                                                                                                                                                                                                                                                                                                                                                                    
  6.250000E+02  1.250000E+02 -4.975000E+03  4.948366E+07  1.918452E+02  0.000000E+00  1.000000E+00  1.000000E+00  0.000000E+00  0.000000E+00  6.649778E+00  9.050402E+02  2.010726E-01  1.000000E-16  1.000000E-16  1.000000E-16  0.000000E+00  1.000000E+00                                                                                                                                                                                                                                                                                                                                                                                                                                                                                                                                                                    
  7.600000E+02  1.250000E+02 -4.975000E+03  4.948375E+07  1.918987E+02  0.000000E+00  1.000000E+00  1.000000E+00  0.000000E+00  0.000000E+00  6.657214E+00  9.049884E+02  2.010730E-01  1.000000E-16  1.000000E-16  1.000000E-16  0.000000E+00  1.000000E+00                                                                                                                                                                                                                                                                                                                                                                                                                                                                                                                                                                    
  7.800000E+02  1.250000E+02 -4.975000E+03  4.948376E+07  1.919207E+02  0.000000E+00  1.000000E+00  1.000000E+00  0.000000E+00  0.000000E+00  6.660278E+00  9.049670E+02  2.010731E-01  1.000000E-16  1.000000E-16  1.000000E-16  0.000000E+00  1.000000E+00                                                                                                                                                                                                                                                                                                                                                                                                                                                                                                                                                                    
  8.000000E+02  1.250000E+02 -4.975000E+03  4.948378E+07  1.919656E+02  0.000000E+00  1.000000E+00  1.000000E+00  0.000000E+00  0.000000E+00  6.666531E+00  9.049234E+02  2.010734E-01  1.000000E-16  1.000000E-16  1.000000E-16  0.000000E+00  1.000000E+00                                                                                                                                                                                                                                                                                                                                                                                                                                                                                                                                                                    
  9.350000E+02  1.250000E+02 -4.975000E+03  4.948397E+07  1.923327E+02  0.000000E+00  1.000000E+00  1.000000E+00  0.000000E+00  0.000000E+00  6.717808E+00  9.045670E+02  2.010757E-01  1.000000E-16  1.000000E-16  1.000000E-16  0.000000E+00  1.000000E+00                                                                                                                                                                                                                                                                                                                                                                                                                                                                                                                                                                    
  1.185000E+03  1.250000E+02 -4.975000E+03  4.948450E+07  1.928346E+02  0.000000E+00  1.000000E+00  1.000000E+00  0.000000E+00  0.000000E+00  6.788430E+00  9.040791E+02  2.010791E-01  1.000000E-16  1.000000E-16  1.000000E-16  0.000000E+00  1.000000E+00                                                                                                                                                                                                                                                                                                                                                                                                                                                                                                                                                                    
  1.435000E+03  1.250000E+02 -4.975000E+03  4.948532E+07  1.936716E+02  0.000000E+00  1.000000E+00  1.000000E+00  0.000000E+00  0.000000E+00  6.907548E+00  9.032635E+02  2.010847E-01  1.000000E-16  1.000000E-16  1.000000E-16  0.000000E+00  1.000000E+00                                                                                                                                                                                                                                                                                                                                                                                                                                                                                                                                                                    
  1.250000E+02  1.250000E+02 -4.725000E+03  4.835330E+07  1.421473E+02  0.000000E+00  1.000000E+00  1.000000E+00  0.000000E+00  0.000000E+00  2.081446E+00  9.486097E+02  2.016800E-01  1.000000E-16  1.000000E-16  1.000000E-16  0.000000E+00  1.000000E+00                                                                                                                                                                                                                                                                                                                                                                                                                                                                                                                                                                    
  3.750000E+02  1.250000E+02 -4.725000E+03  4.835523E+07  1.410777E+02  0.000000E+00  1.000000E+00  1.000000E+00  0.000000E+00  0.000000E+00  2.023583E+00  9.494732E+02  2.016748E-01  1.000000E-16  1.000000E-16  1.000000E-16  0.000000E+00  1.000000E+00                                                                                                                                                                                                                                                                                                                                                                                                                                                                                                                                                                    
  6.250000E+02  1.250000E+02 -4.725000E+03  4.835671E+07  1.402939E+02  0.000000E+00  1.000000E+00  1.000000E+00  0.000000E+00  0.000000E+00  1.982004E+00  9.501037E+02  2.016711E-01  1.000000E-16  1.000000E-16  1.000000E-16  0.000000E+00  1.000000E+00                                                                                                                                                                                                                                                                                                                                                                                                                                                                                                                                                                    
  7.600000E+02  1.250000E+02 -4.725000E+03  4.835638E+07  1.403491E+02  0.000000E+00  1.000000E+00  1.000000E+00  0.000000E+00  0.000000E+00  1.984914E+00  9.500592E+02  2.016712E-01  1.000000E-16  1.000000E-16  1.000000E-16  0.000000E+00  1.000000E+00                                                                                                                                                                                                                                                                                                                                                                                                                                                                                                                                                                    
  7.800000E+02  1.250000E+02 -4.725000E+03  4.835632E+07  1.403762E+02  0.000000E+00  1.000000E+00  1.000000E+00  0.000000E+00  0.000000E+00  1.986336E+00  9.500375E+02  2.016713E-01  1.000000E-16  1.000000E-16  1.000000E-16  0.000000E+00  1.000000E+00                                                                                                                                                                                                                                                                                                                                                                                                                                                                                                                                                                    
  8.000000E+02  1.250000E+02 -4.725000E+03  4.835624E+07  1.404325E+02  0.000000E+00  1.000000E+00  1.000000E+00  0.000000E+00  0.000000E+00  1.989310E+00  9.499922E+02  2.016716E-01  1.000000E-16  1.000000E-16  1.000000E-16  0.000000E+00  1.000000E+00                                                                                                                                                                                                                                                                                                                                                                                                                                                                                                                                                                    
  9.350000E+02  1.250000E+02 -4.725000E+03  4.835559E+07  1.409112E+02  0.000000E+00  1.000000E+00  1.000000E+00  0.000000E+00  0.000000E+00  2.014693E+00  9.496073E+02  2.016740E-01  1.000000E-16  1.000000E-16  1.000000E-16  0.000000E+00  1.000000E+00                                                                                                                                                                                                                                                                                                                                                                                                                                                                                                                                                                    
  1.185000E+03  1.250000E+02 -4.725000E+03  4.835380E+07  1.415775E+02  0.000000E+00  1.000000E+00  1.000000E+00  0.000000E+00  0.000000E+00  2.050456E+00  9.490700E+02  2.016769E-01  1.000000E-16  1.000000E-16  1.000000E-16  0.000000E+00  1.000000E+00                                                                                                                                                                                                                                                                                                                                                                                                                                                                                                                                                                    