Title="TOUGHREACT V3.30-OMP flowvector.tec: Liq & Gas Fluxes (kg/s/m^2), Pore Velocities (m/s), & Heat Fluxes (J/s/m2)"                                                                                                                                                                                                                                                                                                                                                                                                                                                                                                                                                                                                                                                                                                         
Variables= "X(m)"     "Y(m)"      "Z(m)"     "FluxLiq"   "FluxLiq_X"   "FluxLiq_Y"   "FluxLiq_Z"   "PorVelLiq"  "PorVelLiqX"  "PorVelLiqY"  "PorVelLiqZ"     "FluxGas"   "FluxGas_X"   "FluxGas_Y"   "FluxGas_Z"   "PorVelGas"  "PorVelGasX"  "PorVelGasY"  "PorVelGasZ"    "HeatFlux"  "HeatFlux_X"  "HeatFlux_Y"  "HeatFlux_Z"                                                                                                                                                                                                                                                                                                                                                                                                                                                                                                
Zone T= "1.67000000E+10 sec" I=     9 J=    10 K=    23 F=Point
  1.250000E+02  1.250000E+02 -5.425000E+03  1.066633E-06  0.000000E+00  0.000000E+00 -1.066633E-06  6.227225E-09  0.000000E+00  0.000000E+00 -6.227225E-09  0.000000E+00  0.000000E+00  0.000000E+00  0.000000E+00  0.000000E+00  0.000000E+00  0.000000E+00  0.000000E+00  1.098968E+00  0.000000E+00  0.000000E+00 -1.098968E+00                                                                                                                                                                                                                                                                                                                                                                                                                                                                                              
  3.750000E+02  1.250000E+02 -5.425000E+03  1.063574E-06  0.000000E+00  0.000000E+00 -1.063574E-06  6.209464E-09  0.000000E+00  0.000000E+00 -6.209464E-09  0.000000E+00  0.000000E+00  0.000000E+00  0.000000E+00  0.000000E+00  0.000000E+00  0.000000E+00  0.000000E+00  1.095883E+00  0.000000E+00  0.000000E+00 -1.095883E+00                                                                                                                                                                                                                                                                                                                                                                                                                                                                                              
  6.250000E+02  1.250000E+02 -5.425000E+03  1.061560E-06  0.000000E+00  0.000000E+00 -1.061560E-06  6.197737E-09  0.000000E+00  0.000000E+00 -6.197737E-09  0.000000E+00  0.000000E+00  0.000000E+00  0.000000E+00  0.000000E+00  0.000000E+00  0.000000E+00  0.000000E+00  1.093817E+00  0.000000E+00  0.000000E+00 -1.093817E+00                                                                                                                                                                                                                                                                                                                                                                                                                                                                                              
  7.600000E+02  1.250000E+02 -5.425000E+03  1.062040E-06  0.000000E+00  0.000000E+00 -1.062040E-06  6.200522E-09  0.000000E+00  0.000000E+00 -6.200522E-09  0.000000E+00  0.000000E+00  0.000000E+00  0.000000E+00  0.000000E+00  0.000000E+00  0.000000E+00  0.000000E+00  1.094299E+00  0.000000E+00  0.000000E+00 -1.094299E+00                                                                                                                                                                                                                                                                                                                                                                                                                                                                                              
  7.800000E+02  1.250000E+02 -5.425000E+03  1.062131E-06  0.000000E+00  0.000000E+00 -1.062131E-06  6.201052E-09  0.000000E+00  0.000000E+00 -6.201052E-09  0.000000E+00  0.000000E+00  0.000000E+00  0.000000E+00  0.000000E+00  0.000000E+00  0.000000E+00  0.000000E+00  1.094393E+00  0.000000E+00  0.000000E+00 -1.094393E+00                                                                                                                                                                                                                                                                                                                                                                                                                                                                                              
  8.000000E+02  1.250000E+02 -5.425000E+03  1.062242E-06  0.000000E+00  0.000000E+00 -1.062242E-06  6.201703E-09  0.000000E+00  0.000000E+00 -6.201703E-09  0.000000E+00  0.000000E+00  0.000000E+00  0.000000E+00  0.000000E+00  0.000000E+00  0.000000E+00  0.000000E+00  1.094511E+00  0.000000E+00  0.000000E+00 -1.094511E+00                                                                                                                                                                                                                                                                                                                                                                                                                                                                                              
  9.350000E+02  1.250000E+02 -5.425000E+03  1.063125E-06  0.000000E+00  0.000000E+00 -1.063125E-06  6.206877E-09  0.000000E+00  0.000000E+00 -6.206877E-09  0.000000E+00  0.000000E+00  0.000000E+00  0.000000E+00  0.000000E+00  0.000000E+00  0.000000E+00  0.000000E+00  1.095456E+00  0.000000E+00  0.000000E+00 -1.095456E+00                                                                                                                                                                                                                                                                                                                                                                                                                                                                                              
  1.185000E+03  1.250000E+02 -5.425000E+03  1.067236E-06  0.000000E+00  0.000000E+00 -1.067236E-06  6.230753E-09  0.000000E+00  0.000000E+00 -6.230753E-09  0.000000E+00  0.000000E+00  0.000000E+00  0.000000E+00  0.000000E+00  0.000000E+00  0.000000E+00  0.000000E+00  1.099612E+00  0.000000E+00  0.000000E+00 -1.099612E+00                                                                                                                                                                                                                                                                                                                                                                                                                                                                                              
  1.435000E+03  1.250000E+02 -5.425000E+03  1.072067E-06  0.000000E+00  0.000000E+00 -1.072067E-06  6.258810E-09  0.000000E+00  0.000000E+00 -6.258810E-09  0.000000E+00  0.000000E+00  0.000000E+00  0.000000E+00  0.000000E+00  0.000000E+00  0.000000E+00  0.000000E+00  1.104489E+00  0.000000E+00  0.000000E+00 -1.104489E+00                                                                                                                                                                                                                                                                                                                                                                                                                                                                                              
  1.250000E+02  1.250000E+02 -5.225000E+03  2.140683E-06  2.482416E-09 -1.866020E-11 -2.140682E-06  1.238650E-08  1.439200E-11 -1.081828E-13 -1.238649E-08  0.000000E+00  0.000000E+00  0.000000E+00  0.000000E+00  0.000000E+00  0.000000E+00  0.000000E+00  0.000000E+00  2.147314E+00  2.557670E-03 -1.922587E-05 -2.147313E+00                                                                                                                                                                                                                                                                                                                                                                                                                                                                                              
  3.750000E+02  1.250000E+02 -5.225000E+03  2.131283E-06  4.108254E-09 -3.120146E-11 -2.131279E-06  1.233189E-08  2.381809E-11 -1.808957E-13 -1.233186E-08  0.000000E+00  0.000000E+00  0.000000E+00  0.000000E+00  0.000000E+00  0.000000E+00  0.000000E+00  0.000000E+00  2.137159E+00  4.232897E-03 -3.214928E-05 -2.137155E+00                                                                                                                                                                                                                                                                                                                                                                                                                                                                                              
  6.250000E+02  1.250000E+02 -5.225000E+03  2.125819E-06  9.038958E-10 -5.125751E-11 -2.125818E-06  1.229968E-08  5.240486E-12 -2.971762E-13 -1.229968E-08  0.000000E+00  0.000000E+00  0.000000E+00  0.000000E+00  0.000000E+00  0.000000E+00  0.000000E+00  0.000000E+00  2.130729E+00  9.313564E-04 -5.281503E-05 -2.130728E+00                                                                                                                                                                                                                                                                                                                                                                                                                                                                                              
  7.600000E+02  1.250000E+02 -5.225000E+03  2.126672E-06 -1.638402E-09 -6.623265E-11 -2.126671E-06  1.230465E-08 -9.498945E-12 -3.839959E-13 -1.230464E-08  0.000000E+00  0.000000E+00  0.000000E+00  0.000000E+00  0.000000E+00  0.000000E+00  0.000000E+00  0.000000E+00  2.131657E+00 -1.688168E-03 -6.824442E-05 -2.131657E+00                                                                                                                                                                                                                                                                                                                                                                                                                                                                                              
  7.800000E+02  1.250000E+02 -5.225000E+03  2.126856E-06 -2.026823E-09 -6.850662E-11 -2.126855E-06  1.230574E-08 -1.175088E-11 -3.971796E-13 -1.230574E-08  0.000000E+00  0.000000E+00  0.000000E+00  0.000000E+00  0.000000E+00  0.000000E+00  0.000000E+00  0.000000E+00  2.131883E+00 -2.088391E-03 -7.058747E-05 -2.131882E+00                                                                                                                                                                                                                                                                                                                                                                                                                                                                                              
  8.000000E+02  1.250000E+02 -5.225000E+03  2.127105E-06 -2.411772E-09 -7.083636E-11 -2.127104E-06  1.230725E-08 -1.398272E-11 -4.106870E-13 -1.230724E-08  0.000000E+00  0.000000E+00  0.000000E+00  0.000000E+00  0.000000E+00  0.000000E+00  0.000000E+00  0.000000E+00  2.132222E+00 -2.485079E-03 -7.298820E-05 -2.132221E+00                                                                                                                                                                                                                                                                                                                                                                                                                                                                                              
  9.350000E+02  1.250000E+02 -5.225000E+03  2.129158E-06 -4.634295E-09 -8.694756E-11 -2.129153E-06  1.231971E-08 -2.686798E-11 -5.040984E-13 -1.231968E-08  0.000000E+00  0.000000E+00  0.000000E+00  0.000000E+00  0.000000E+00  0.000000E+00  0.000000E+00  0.000000E+00  2.135041E+00 -4.774980E-03 -8.959163E-05 -2.135036E+00                                                                                                                                                                                                                                                                                                                                                                                                                                                                                              
  1.185000E+03  1.250000E+02 -5.225000E+03  2.138733E-06 -7.252379E-09 -1.263367E-10 -2.138721E-06  1.237523E-08 -4.204570E-11 -7.324426E-13 -1.237516E-08  0.000000E+00  0.000000E+00  0.000000E+00  0.000000E+00  0.000000E+00  0.000000E+00  0.000000E+00  0.000000E+00  2.145198E+00 -7.472024E-03 -1.301691E-04 -2.145185E+00                                                                                                                                                                                                                                                                                                                                                                                                                                                                                              
  1.435000E+03  1.250000E+02 -5.225000E+03  2.152792E-06 -3.919492E-09 -1.634344E-10 -2.152789E-06  1.245658E-08 -2.272290E-11 -9.474810E-13 -1.245656E-08  0.000000E+00  0.000000E+00  0.000000E+00  0.000000E+00  0.000000E+00  0.000000E+00  0.000000E+00  0.000000E+00  2.159947E+00 -4.038029E-03 -1.683769E-04 -2.159943E+00                                                                                                                                                                                                                                                                                                                                                                                                                                                                                              
  1.250000E+02  1.250000E+02 -4.975000E+03  2.166829E-06  8.381567E-09 -6.186085E-12 -2.166813E-06  1.226591E-08  4.771045E-11 -3.521714E-14 -1.226582E-08  0.000000E+00  0.000000E+00  0.000000E+00  0.000000E+00  0.000000E+00  0.000000E+00  0.000000E+00  0.000000E+00  1.988294E+00  8.180986E-03 -6.038036E-06 -1.988277E+00                                                                                                                                                                                                                                                                                                                                                                                                                                                                                              
  3.750000E+02  1.250000E+02 -4.975000E+03  2.142527E-06  1.299439E-08 -4.059668E-11 -2.142487E-06  1.212217E-08  7.396226E-11 -2.310680E-13 -1.212194E-08  0.000000E+00  0.000000E+00  0.000000E+00  0.000000E+00  0.000000E+00  0.000000E+00  0.000000E+00  0.000000E+00  1.956765E+00  1.267961E-02 -3.959155E-05 -1.956724E+00                                                                                                                                                                                                                                                                                                                                                                                                                                                                                              
  6.250000E+02  1.250000E+02 -4.975000E+03  2.133860E-06  3.297825E-09 -8.228246E-11 -2.133857E-06  1.206707E-08  1.876886E-11 -4.682194E-13 -1.206706E-08  0.000000E+00  0.000000E+00  0.000000E+00  0.000000E+00  0.000000E+00  0.000000E+00  0.000000E+00  0.000000E+00  1.940914E+00  3.217312E-03 -8.016823E-05 -1.940911E+00                                                                                                                                                                                                                                                                                                                                                                                                                                                                                              
  7.600000E+02  1.250000E+02 -4.975000E+03  2.133889E-06 -3.155380E-09 -1.115410E-10 -2.133887E-06  1.206779E-08 -1.795567E-11 -6.347246E-13 -1.206778E-08  0.000000E+00  0.000000E+00  0.000000E+00  0.000000E+00  0.000000E+00  0.000000E+00  0.000000E+00  0.000000E+00  1.941650E+00 -3.074616E-03 -1.086838E-04 -1.941648E+00                                                                                                                                                                                                                                                                                                                                                                                                                                                                                              
  7.800000E+02  1.250000E+02 -4.975000E+03  2.134028E-06 -4.208292E-09 -1.160051E-10 -2.134024E-06  1.206882E-08 -2.394763E-11 -6.601342E-13 -1.206880E-08  0.000000E+00  0.000000E+00  0.000000E+00  0.000000E+00  0.000000E+00  0.000000E+00  0.000000E+00  0.000000E+00  1.942073E+00 -4.100838E-03 -1.130379E-04 -1.942068E+00                                                                                                                                                                                                                                                                                                                                                                                                                                                                                              
  8.000000E+02  1.250000E+02 -4.975000E+03  2.134369E-06 -5.255171E-09 -1.206064E-10 -2.134363E-06  1.207122E-08 -2.990684E-11 -6.863330E-13 -1.207119E-08  0.000000E+00  0.000000E+00  0.000000E+00  0.000000E+00  0.000000E+00  0.000000E+00  0.000000E+00  0.000000E+00  1.942976E+00 -5.123160E-03 -1.175313E-04 -1.942969E+00                                                                                                                                                                                                                                                                                                                                                                                                                                                                                              
  9.350000E+02  1.250000E+02 -4.975000E+03  2.137401E-06 -1.128354E-08 -1.525923E-10 -2.137371E-06  1.209241E-08 -6.422448E-11 -8.685168E-13 -1.209224E-08  0.000000E+00  0.000000E+00  0.000000E+00  0.000000E+00  0.000000E+00  0.000000E+00  0.000000E+00  0.000000E+00  1.950747E+00 -1.100886E-02 -1.488067E-04 -1.950716E+00                                                                                                                                                                                                                                                                                                                                                                                                                                                                                              
  1.185000E+03  1.250000E+02 -4.975000E+03  2.149101E-06 -2.107739E-08 -2.426868E-10 -2.148997E-06  1.216326E-08 -1.199863E-10 -1.381518E-12 -1.216267E-08  0.000000E+00  0.000000E+00  0.000000E+00  0.000000E+00  0.000000E+00  0.000000E+00  0.000000E+00  0.000000E+00  1.967993E+00 -2.057785E-02 -2.368184E-04 -1.967886E+00                                                                                                                                                                                                                                                                                                                                                                                                                                                                                              
  1.435000E+03  1.250000E+02 -4.975000E+03  2.183734E-06 -1.268110E-08 -3.504130E-10 -2.183697E-06  1.236595E-08 -7.219377E-11 -1.995129E-12 -1.236574E-08  0.000000E+00  0.000000E+00  0.000000E+00  0.000000E+00  0.000000E+00  0.000000E+00  0.000000E+00  0.000000E+00  2.010304E+00 -1.238461E-02 -3.422231E-04 -2.010266E+00                                                                                                                                                                                                                                                                                                                                                                                                                                                                                              
  1.250000E+02  1.250000E+02 -4.725000E+03  2.242856E-06  2.003079E-08  7.308478E-11 -2.242766E-06  1.215228E-08  1.101436E-10  4.023007E-13 -1.215178E-08  0.000000E+00  0.000000E+00  0.000000E+00  0.000000E+00  0.000000E+00  0.000000E+00  0.000000E+00  0.000000E+00  1.432685E+00  1.722931E-02  6.286324E-05 -1.432582E+00                                                                                                                                                                                                                                                                                                                                                                                                                                                                                              
  3.750000E+02  1.250000E+02 -4.725000E+03  2.171427E-06  2.489461E-08 -1.008466E-11 -2.171284E-06  1.174671E-08  1.368405E-10 -5.539962E-14 -1.174591E-08  0.000000E+00  0.000000E+00  0.000000E+00  0.000000E+00  0.000000E+00  0.000000E+00  0.000000E+00  0.000000E+00  1.355051E+00  2.137209E-02 -8.589536E-06 -1.354883E+00                                                                                                                                                                                                                                                                                                                                                                                                                                                                                              
  6.250000E+02  1.250000E+02 -4.725000E+03  2.170903E-06  5.030320E-09 -5.070568E-11 -2.170897E-06  1.173173E-08  2.761014E-11 -2.781014E-13 -1.173170E-08  0.000000E+00  0.000000E+00  0.000000E+00  0.000000E+00  0.000000E+00  0.000000E+00  0.000000E+00  0.000000E+00  1.344527E+00  4.283508E-03 -4.285564E-05 -1.344520E+00                                                                                                                                                                                                                                                                                                                                                                                                                                                                                              
  7.600000E+02  1.250000E+02 -4.725000E+03  2.170407E-06 -2.939997E-11 -7.644996E-11 -2.170407E-06  1.172986E-08 -1.613591E-13 -4.193554E-13 -1.172986E-08  0.000000E+00  0.000000E+00  0.000000E+00  0.000000E+00  0.000000E+00  0.000000E+00  0.000000E+00  0.000000E+00  1.344752E+00 -2.500052E-05 -6.465614E-05 -1.344752E+00                                                                                                                                                                                                                                                                                                                                                                                                                                                                                              
  7.800000E+02  1.250000E+02 -4.725000E+03  2.170350E-06 -7.674266E-10 -8.047399E-11 -2.170350E-06  1.172994E-08 -4.209996E-12 -4.414543E-13 -1.172994E-08  0.000000E+00  0.000000E+00  0.000000E+00  0.000000E+00  0.000000E+00  0.000000E+00  0.000000E+00  0.000000E+00  1.345000E+00 -6.494810E-04 -6.807833E-05 -1.345000E+00                                                                                                                                                                                                                                                                                                                                                                                                                                                                                              
  8.000000E+02  1.250000E+02 -4.725000E+03  2.170336E-06 -1.554998E-09 -8.473533E-11 -2.170335E-06  1.173068E-08 -8.533627E-12 -4.648854E-13 -1.173068E-08  0.000000E+00  0.000000E+00  0.000000E+00  0.000000E+00  0.000000E+00  0.000000E+00  0.000000E+00  0.000000E+00  1.345596E+00 -1.320164E-03 -7.172390E-05 -1.345595E+00                                                                                                                                                                                                                                                                                                                                                                                                                                                                                              
  9.350000E+02  1.250000E+02 -4.725000E+03  2.170458E-06 -1.105592E-08 -1.152237E-10 -2.170430E-06  1.173832E-08 -6.074898E-11 -6.327835E-13 -1.173817E-08  0.000000E+00  0.000000E+00  0.000000E+00  0.000000E+00  0.000000E+00  0.000000E+00  0.000000E+00  0.000000E+00  1.350881E+00 -9.458066E-03 -9.799490E-05 -1.350848E+00                                                                                                                                                                                                                                                                                                                                                                                                                                                                                              
  1.185000E+03  1.250000E+02 -4.725000E+03  2.171618E-06 -4.078258E-08 -2.326347E-10 -2.171235E-06  1.175576E-08 -2.244133E-10 -1.279289E-12 -1.175362E-08  0.000000E+00  0.000000E+00  0.000000E+00  0.000000E+00  0.000000E+00  0.000000E+00  0.000000E+00  0.000000E+00  1.362703E+00 -3.520647E-02 -1.991350E-04 -1.362248E+00                                                                                                                                                                                                                                                                                                                                                                                                                                                                                              