Title="TOUGHREACT V3.30-OMP flowvector.tec: Liq & Gas Fluxes (kg/s/m^2), Pore Velocities (m/s), & Heat Fluxes (J/s/m2)"                                                                                                                                                                                                                                                                                                                                                                                                                                                                                                                                                                                                                                                                                                         
Variables= "X(m)"     "Y(m)"      "Z(m)"     "FluxLiq"   "FluxLiq_X"   "FluxLiq_Y"   "FluxLiq_Z"   "PorVelLiq"  "PorVelLiqX"  "PorVelLiqY"  "PorVelLiqZ"     "FluxGas"   "FluxGas_X"   "FluxGas_Y"   "FluxGas_Z"   "PorVelGas"  "PorVelGasX"  "PorVelGasY"  "PorVelGasZ"    "HeatFlux"  "HeatFlux_X"  "HeatFlux_Y"  "HeatFlux_Z"                                                                                                                                                                                                                                                                                                                                                                                                                                                                                                
Zone T= "8.66000000E+10 sec" I=     9 J=    10 K=    23 F=Point
  1.250000E+02  1.250000E+02 -5.425000E+03  9.892666E-07  0.000000E+00  0.000000E+00 -9.892666E-07  5.698687E-09  0.000000E+00  0.000000E+00 -5.698687E-09  0.000000E+00  0.000000E+00  0.000000E+00  0.000000E+00  0.000000E+00  0.000000E+00  0.000000E+00  0.000000E+00  9.225671E-01  0.000000E+00  0.000000E+00 -9.225671E-01                                                                                                                                                                                                                                                                                                                                                                                                                                                                                              
  3.750000E+02  1.250000E+02 -5.425000E+03  9.878815E-07  0.000000E+00  0.000000E+00 -9.878815E-07  5.689591E-09  0.000000E+00  0.000000E+00 -5.689591E-09  0.000000E+00  0.000000E+00  0.000000E+00  0.000000E+00  0.000000E+00  0.000000E+00  0.000000E+00  0.000000E+00  9.197979E-01  0.000000E+00  0.000000E+00 -9.197979E-01                                                                                                                                                                                                                                                                                                                                                                                                                                                                                              
  6.250000E+02  1.250000E+02 -5.425000E+03  9.867469E-07  0.000000E+00  0.000000E+00 -9.867469E-07  5.682093E-09  0.000000E+00  0.000000E+00 -5.682093E-09  0.000000E+00  0.000000E+00  0.000000E+00  0.000000E+00  0.000000E+00  0.000000E+00  0.000000E+00  0.000000E+00  9.174662E-01  0.000000E+00  0.000000E+00 -9.174662E-01                                                                                                                                                                                                                                                                                                                                                                                                                                                                                              
  7.600000E+02  1.250000E+02 -5.425000E+03  9.869056E-07  0.000000E+00  0.000000E+00 -9.869056E-07  5.683089E-09  0.000000E+00  0.000000E+00 -5.683089E-09  0.000000E+00  0.000000E+00  0.000000E+00  0.000000E+00  0.000000E+00  0.000000E+00  0.000000E+00  0.000000E+00  9.177241E-01  0.000000E+00  0.000000E+00 -9.177241E-01                                                                                                                                                                                                                                                                                                                                                                                                                                                                                              
  7.800000E+02  1.250000E+02 -5.425000E+03  9.869497E-07  0.000000E+00  0.000000E+00 -9.869497E-07  5.683380E-09  0.000000E+00  0.000000E+00 -5.683380E-09  0.000000E+00  0.000000E+00  0.000000E+00  0.000000E+00  0.000000E+00  0.000000E+00  0.000000E+00  0.000000E+00  9.178135E-01  0.000000E+00  0.000000E+00 -9.178135E-01                                                                                                                                                                                                                                                                                                                                                                                                                                                                                              
  8.000000E+02  1.250000E+02 -5.425000E+03  9.870250E-07  0.000000E+00  0.000000E+00 -9.870250E-07  5.683890E-09  0.000000E+00  0.000000E+00 -5.683890E-09  0.000000E+00  0.000000E+00  0.000000E+00  0.000000E+00  0.000000E+00  0.000000E+00  0.000000E+00  0.000000E+00  9.179848E-01  0.000000E+00  0.000000E+00 -9.179848E-01                                                                                                                                                                                                                                                                                                                                                                                                                                                                                              
  9.350000E+02  1.250000E+02 -5.425000E+03  9.876302E-07  0.000000E+00  0.000000E+00 -9.876302E-07  5.687998E-09  0.000000E+00  0.000000E+00 -5.687998E-09  0.000000E+00  0.000000E+00  0.000000E+00  0.000000E+00  0.000000E+00  0.000000E+00  0.000000E+00  0.000000E+00  9.193701E-01  0.000000E+00  0.000000E+00 -9.193701E-01                                                                                                                                                                                                                                                                                                                                                                                                                                                                                              
  1.185000E+03  1.250000E+02 -5.425000E+03  9.887872E-07  0.000000E+00  0.000000E+00 -9.887872E-07  5.695437E-09  0.000000E+00  0.000000E+00 -5.695437E-09  0.000000E+00  0.000000E+00  0.000000E+00  0.000000E+00  0.000000E+00  0.000000E+00  0.000000E+00  0.000000E+00  9.214755E-01  0.000000E+00  0.000000E+00 -9.214755E-01                                                                                                                                                                                                                                                                                                                                                                                                                                                                                              
  1.435000E+03  1.250000E+02 -5.425000E+03  9.904154E-07  0.000000E+00  0.000000E+00 -9.904154E-07  5.706083E-09  0.000000E+00  0.000000E+00 -5.706083E-09  0.000000E+00  0.000000E+00  0.000000E+00  0.000000E+00  0.000000E+00  0.000000E+00  0.000000E+00  0.000000E+00  9.246691E-01  0.000000E+00  0.000000E+00 -9.246691E-01                                                                                                                                                                                                                                                                                                                                                                                                                                                                                              
  1.250000E+02  1.250000E+02 -5.225000E+03  1.990337E-06  5.360831E-10  1.908643E-12 -1.990336E-06  1.122959E-08  3.024099E-12  1.076904E-14 -1.122959E-08  0.000000E+00  0.000000E+00  0.000000E+00  0.000000E+00  0.000000E+00  0.000000E+00  0.000000E+00  0.000000E+00  1.711868E+00  4.999387E-04  1.779956E-06 -1.711868E+00                                                                                                                                                                                                                                                                                                                                                                                                                                                                                              
  3.750000E+02  1.250000E+02 -5.225000E+03  1.986993E-06  9.463561E-10  9.690754E-13 -1.986993E-06  1.120661E-08  5.337638E-12  5.465600E-15 -1.120661E-08  0.000000E+00  0.000000E+00  0.000000E+00  0.000000E+00  0.000000E+00  0.000000E+00  0.000000E+00  0.000000E+00  1.704450E+00  8.819362E-04  9.022879E-07 -1.704450E+00                                                                                                                                                                                                                                                                                                                                                                                                                                                                                              
  6.250000E+02  1.250000E+02 -5.225000E+03  1.984343E-06  2.530638E-10 -6.461748E-13 -1.984343E-06  1.118824E-08  1.427168E-12 -3.643192E-15 -1.118824E-08  0.000000E+00  0.000000E+00  0.000000E+00  0.000000E+00  0.000000E+00  0.000000E+00  0.000000E+00  0.000000E+00  1.698448E+00  2.358086E-04 -6.008073E-07 -1.698448E+00                                                                                                                                                                                                                                                                                                                                                                                                                                                                                              
  7.600000E+02  1.250000E+02 -5.225000E+03  1.984611E-06 -3.632239E-10 -1.508422E-12 -1.984611E-06  1.119006E-08 -2.047943E-12 -8.504870E-15 -1.119006E-08  0.000000E+00  0.000000E+00  0.000000E+00  0.000000E+00  0.000000E+00  0.000000E+00  0.000000E+00  0.000000E+00  1.699014E+00 -3.377722E-04 -1.402686E-06 -1.699014E+00                                                                                                                                                                                                                                                                                                                                                                                                                                                                                              
  7.800000E+02  1.250000E+02 -5.225000E+03  1.984707E-06 -4.600066E-10 -1.638321E-12 -1.984707E-06  1.119073E-08 -2.593679E-12 -9.237397E-15 -1.119073E-08  0.000000E+00  0.000000E+00  0.000000E+00  0.000000E+00  0.000000E+00  0.000000E+00  0.000000E+00  0.000000E+00  1.699235E+00 -4.278090E-04 -1.523561E-06 -1.699235E+00                                                                                                                                                                                                                                                                                                                                                                                                                                                                                              
  8.000000E+02  1.250000E+02 -5.225000E+03  1.984891E-06 -5.528949E-10 -1.769803E-12 -1.984891E-06  1.119203E-08 -3.117648E-12 -9.979005E-15 -1.119203E-08  0.000000E+00  0.000000E+00  0.000000E+00  0.000000E+00  0.000000E+00  0.000000E+00  0.000000E+00  0.000000E+00  1.699677E+00 -5.144701E-04 -1.646015E-06 -1.699677E+00                                                                                                                                                                                                                                                                                                                                                                                                                                                                                              
  9.350000E+02  1.250000E+02 -5.225000E+03  1.986396E-06 -8.296595E-10 -2.671993E-12 -1.986395E-06  1.120267E-08 -4.679259E-12 -1.506931E-14 -1.120267E-08  0.000000E+00  0.000000E+00  0.000000E+00  0.000000E+00  0.000000E+00  0.000000E+00  0.000000E+00  0.000000E+00  1.703284E+00 -7.728696E-04 -2.487326E-06 -1.703284E+00                                                                                                                                                                                                                                                                                                                                                                                                                                                                                              
  1.185000E+03  1.250000E+02 -5.225000E+03  1.988750E-06 -1.188709E-09 -5.777533E-12 -1.988750E-06  1.121883E-08 -6.706220E-12 -3.259268E-14 -1.121883E-08  0.000000E+00  0.000000E+00  0.000000E+00  0.000000E+00  0.000000E+00  0.000000E+00  0.000000E+00  0.000000E+00  1.708457E+00 -1.108902E-03 -5.384265E-06 -1.708457E+00                                                                                                                                                                                                                                                                                                                                                                                                                                                                                              
  1.435000E+03  1.250000E+02 -5.225000E+03  1.992677E-06 -6.579530E-10 -1.024091E-11 -1.992677E-06  1.124573E-08 -3.712500E-12 -5.779782E-14 -1.124573E-08  0.000000E+00  0.000000E+00  0.000000E+00  0.000000E+00  0.000000E+00  0.000000E+00  0.000000E+00  0.000000E+00  1.717105E+00 -6.142764E-04 -9.561279E-06 -1.717105E+00                                                                                                                                                                                                                                                                                                                                                                                                                                                                                              
  1.250000E+02  1.250000E+02 -4.975000E+03  2.017494E-06  4.701632E-10  2.979511E-12 -2.017494E-06  1.090719E-08  2.550974E-12  1.617198E-14 -1.090719E-08  0.000000E+00  0.000000E+00  0.000000E+00  0.000000E+00  0.000000E+00  0.000000E+00  0.000000E+00  0.000000E+00  1.375848E+00  3.707035E-04  2.349217E-06 -1.375848E+00                                                                                                                                                                                                                                                                                                                                                                                                                                                                                              
  3.750000E+02  1.250000E+02 -4.975000E+03  2.012906E-06  8.031367E-10  2.164173E-12 -2.012906E-06  1.087578E-08  4.356432E-12  1.173811E-14 -1.087578E-08  0.000000E+00  0.000000E+00  0.000000E+00  0.000000E+00  0.000000E+00  0.000000E+00  0.000000E+00  0.000000E+00  1.366270E+00  6.322044E-04  1.699634E-06 -1.366269E+00                                                                                                                                                                                                                                                                                                                                                                                                                                                                                              
  6.250000E+02  1.250000E+02 -4.975000E+03  2.009539E-06  2.547888E-10  1.130205E-12 -2.009539E-06  1.085235E-08  1.381630E-12  6.126533E-15 -1.085235E-08  0.000000E+00  0.000000E+00  0.000000E+00  0.000000E+00  0.000000E+00  0.000000E+00  0.000000E+00  0.000000E+00  1.359044E+00  2.002754E-04  8.847966E-07 -1.359044E+00                                                                                                                                                                                                                                                                                                                                                                                                                                                                                              
  7.600000E+02  1.250000E+02 -4.975000E+03  2.009569E-06 -2.048259E-10  8.323331E-13 -2.009569E-06  1.085298E-08 -1.110358E-12  4.512083E-15 -1.085298E-08  0.000000E+00  0.000000E+00  0.000000E+00  0.000000E+00  0.000000E+00  0.000000E+00  0.000000E+00  0.000000E+00  1.359473E+00 -1.604080E-04  6.517890E-07 -1.359473E+00                                                                                                                                                                                                                                                                                                                                                                                                                                                                                              
  7.800000E+02  1.250000E+02 -4.975000E+03  2.009673E-06 -3.018715E-10  7.928570E-13 -2.009673E-06  1.085373E-08 -1.636493E-12  4.298174E-15 -1.085373E-08  0.000000E+00  0.000000E+00  0.000000E+00  0.000000E+00  0.000000E+00  0.000000E+00  0.000000E+00  0.000000E+00  1.359720E+00 -2.364517E-04  6.209482E-07 -1.359720E+00                                                                                                                                                                                                                                                                                                                                                                                                                                                                                              
  8.000000E+02  1.250000E+02 -4.975000E+03  2.009941E-06 -3.954520E-10  7.540822E-13 -2.009941E-06  1.085557E-08 -2.144065E-12  4.088146E-15 -1.085557E-08  0.000000E+00  0.000000E+00  0.000000E+00  0.000000E+00  0.000000E+00  0.000000E+00  0.000000E+00  0.000000E+00  1.360262E+00 -3.101173E-04  5.907208E-07 -1.360262E+00                                                                                                                                                                                                                                                                                                                                                                                                                                                                                              
  9.350000E+02  1.250000E+02 -4.975000E+03  2.012242E-06 -5.415268E-10  5.034108E-13 -2.012242E-06  1.087120E-08 -2.937034E-12  2.730125E-15 -1.087120E-08  0.000000E+00  0.000000E+00  0.000000E+00  0.000000E+00  0.000000E+00  0.000000E+00  0.000000E+00  0.000000E+00  1.364822E+00 -4.257186E-04  3.951183E-07 -1.364822E+00                                                                                                                                                                                                                                                                                                                                                                                                                                                                                              
  1.185000E+03  1.250000E+02 -4.975000E+03  2.014532E-06 -8.953449E-10 -1.293507E-12 -2.014531E-06  1.088806E-08 -4.858894E-12 -7.018476E-15 -1.088806E-08  0.000000E+00  0.000000E+00  0.000000E+00  0.000000E+00  0.000000E+00  0.000000E+00  0.000000E+00  0.000000E+00  1.370613E+00 -7.067336E-04 -1.018024E-06 -1.370613E+00                                                                                                                                                                                                                                                                                                                                                                                                                                                                                              
  1.435000E+03  1.250000E+02 -4.975000E+03  2.020016E-06 -5.740398E-10 -5.409967E-12 -2.020016E-06  1.092549E-08 -3.115962E-12 -2.937891E-14 -1.092549E-08  0.000000E+00  0.000000E+00  0.000000E+00  0.000000E+00  0.000000E+00  0.000000E+00  0.000000E+00  0.000000E+00  1.382049E+00 -4.538631E-04 -4.277598E-06 -1.382049E+00                                                                                                                                                                                                                                                                                                                                                                                                                                                                                              
  1.250000E+02  1.250000E+02 -4.725000E+03  2.041791E-06 -1.458936E-09 -2.623226E-12 -2.041790E-06  1.059128E-08 -7.545299E-12 -1.357088E-14 -1.059128E-08  0.000000E+00  0.000000E+00  0.000000E+00  0.000000E+00  0.000000E+00  0.000000E+00  0.000000E+00  0.000000E+00  9.966999E-01 -8.369959E-04 -1.513758E-06 -9.966995E-01                                                                                                                                                                                                                                                                                                                                                                                                                                                                                              
  3.750000E+02  1.250000E+02 -4.725000E+03  2.038106E-06 -2.562453E-09 -4.219103E-13 -2.038105E-06  1.056673E-08 -1.324932E-11 -2.181320E-15 -1.056672E-08  0.000000E+00  0.000000E+00  0.000000E+00  0.000000E+00  0.000000E+00  0.000000E+00  0.000000E+00  0.000000E+00  9.913427E-01 -1.467368E-03 -2.420491E-07 -9.913416E-01                                                                                                                                                                                                                                                                                                                                                                                                                                                                                              
  6.250000E+02  1.250000E+02 -4.725000E+03  2.035434E-06 -6.453281E-10  3.640116E-12 -2.035433E-06  1.054878E-08 -3.336193E-12  1.881115E-14 -1.054878E-08  0.000000E+00  0.000000E+00  0.000000E+00  0.000000E+00  0.000000E+00  0.000000E+00  0.000000E+00  0.000000E+00  9.874584E-01 -3.686371E-04  2.079379E-06 -9.874584E-01                                                                                                                                                                                                                                                                                                                                                                                                                                                                                              
  7.600000E+02  1.250000E+02 -4.725000E+03  2.035608E-06  1.066736E-09  5.367868E-12 -2.035608E-06  1.054996E-08  5.512766E-12  2.774059E-14 -1.054995E-08  0.000000E+00  0.000000E+00  0.000000E+00  0.000000E+00  0.000000E+00  0.000000E+00  0.000000E+00  0.000000E+00  9.876810E-01  6.094618E-04  3.067222E-06 -9.876808E-01                                                                                                                                                                                                                                                                                                                                                                                                                                                                                              
  7.800000E+02  1.250000E+02 -4.725000E+03  2.035700E-06  1.365891E-09  5.626659E-12 -2.035699E-06  1.055057E-08  7.058933E-12  2.907845E-14 -1.055057E-08  0.000000E+00  0.000000E+00  0.000000E+00  0.000000E+00  0.000000E+00  0.000000E+00  0.000000E+00  0.000000E+00  9.878120E-01  7.805395E-04  3.215571E-06 -9.878117E-01                                                                                                                                                                                                                                                                                                                                                                                                                                                                                              
  8.000000E+02  1.250000E+02 -4.725000E+03  2.035890E-06  1.652207E-09  5.887469E-12 -2.035889E-06  1.055186E-08  8.539459E-12  3.042732E-14 -1.055186E-08  0.000000E+00  0.000000E+00  0.000000E+00  0.000000E+00  0.000000E+00  0.000000E+00  0.000000E+00  0.000000E+00  9.880957E-01  9.443769E-04  3.365670E-06 -9.880953E-01                                                                                                                                                                                                                                                                                                                                                                                                                                                                                              
  9.350000E+02  1.250000E+02 -4.725000E+03  2.037526E-06  2.232794E-09  7.637721E-12 -2.037524E-06  1.056291E-08  1.154340E-11  3.948402E-14 -1.056290E-08  0.000000E+00  0.000000E+00  0.000000E+00  0.000000E+00  0.000000E+00  0.000000E+00  0.000000E+00  0.000000E+00  9.905291E-01  1.278444E-03  4.377820E-06 -9.905283E-01                                                                                                                                                                                                                                                                                                                                                                                                                                                                                              
  1.185000E+03  1.250000E+02 -4.725000E+03  2.039864E-06  3.108969E-09  1.449554E-11 -2.039862E-06  1.057841E-08  1.608067E-11  7.496540E-14 -1.057839E-08  0.000000E+00  0.000000E+00  0.000000E+00  0.000000E+00  0.000000E+00  0.000000E+00  0.000000E+00  0.000000E+00  9.937520E-01  1.785673E-03  8.338581E-06 -9.937504E-01                                                                                                                                                                                                                                                                                                                                                                                                                                                                                              