Title="TOUGHREACT V3.30-OMP flowvector.tec: Liq & Gas Fluxes (kg/s/m^2), Pore Velocities (m/s), & Heat Fluxes (J/s/m2)"                                                                                                                                                                                                                                                                                                                                                                                                                                                                                                                                                                                                                                                                                                         
Variables= "X(m)"     "Y(m)"      "Z(m)"     "FluxLiq"   "FluxLiq_X"   "FluxLiq_Y"   "FluxLiq_Z"   "PorVelLiq"  "PorVelLiqX"  "PorVelLiqY"  "PorVelLiqZ"     "FluxGas"   "FluxGas_X"   "FluxGas_Y"   "FluxGas_Z"   "PorVelGas"  "PorVelGasX"  "PorVelGasY"  "PorVelGasZ"    "HeatFlux"  "HeatFlux_X"  "HeatFlux_Y"  "HeatFlux_Z"                                                                                                                                                                                                                                                                                                                                                                                                                                                                                                
Zone T= "1.33000000E+10 sec" I=     9 J=    10 K=    23 F=Point
  1.250000E+02  1.250000E+02 -5.425000E+03  1.067223E-06  0.000000E+00  0.000000E+00 -1.067223E-06  6.233016E-09  0.000000E+00  0.000000E+00 -6.233016E-09  0.000000E+00  0.000000E+00  0.000000E+00  0.000000E+00  0.000000E+00  0.000000E+00  0.000000E+00  0.000000E+00  1.102367E+00  0.000000E+00  0.000000E+00 -1.102367E+00                                                                                                                                                                                                                                                                                                                                                                                                                                                                                              
  3.750000E+02  1.250000E+02 -5.425000E+03  1.062837E-06  0.000000E+00  0.000000E+00 -1.062837E-06  6.207531E-09  0.000000E+00  0.000000E+00 -6.207531E-09  0.000000E+00  0.000000E+00  0.000000E+00  0.000000E+00  0.000000E+00  0.000000E+00  0.000000E+00  0.000000E+00  1.097923E+00  0.000000E+00  0.000000E+00 -1.097923E+00                                                                                                                                                                                                                                                                                                                                                                                                                                                                                              
  6.250000E+02  1.250000E+02 -5.425000E+03  1.059983E-06  0.000000E+00  0.000000E+00 -1.059983E-06  6.190934E-09  0.000000E+00  0.000000E+00 -6.190934E-09  0.000000E+00  0.000000E+00  0.000000E+00  0.000000E+00  0.000000E+00  0.000000E+00  0.000000E+00  0.000000E+00  1.095017E+00  0.000000E+00  0.000000E+00 -1.095017E+00                                                                                                                                                                                                                                                                                                                                                                                                                                                                                              
  7.600000E+02  1.250000E+02 -5.425000E+03  1.060632E-06  0.000000E+00  0.000000E+00 -1.060632E-06  6.194703E-09  0.000000E+00  0.000000E+00 -6.194703E-09  0.000000E+00  0.000000E+00  0.000000E+00  0.000000E+00  0.000000E+00  0.000000E+00  0.000000E+00  0.000000E+00  1.095672E+00  0.000000E+00  0.000000E+00 -1.095672E+00                                                                                                                                                                                                                                                                                                                                                                                                                                                                                              
  7.800000E+02  1.250000E+02 -5.425000E+03  1.060756E-06  0.000000E+00  0.000000E+00 -1.060756E-06  6.195421E-09  0.000000E+00  0.000000E+00 -6.195421E-09  0.000000E+00  0.000000E+00  0.000000E+00  0.000000E+00  0.000000E+00  0.000000E+00  0.000000E+00  0.000000E+00  1.095798E+00  0.000000E+00  0.000000E+00 -1.095798E+00                                                                                                                                                                                                                                                                                                                                                                                                                                                                                              
  8.000000E+02  1.250000E+02 -5.425000E+03  1.060906E-06  0.000000E+00  0.000000E+00 -1.060906E-06  6.196300E-09  0.000000E+00  0.000000E+00 -6.196300E-09  0.000000E+00  0.000000E+00  0.000000E+00  0.000000E+00  0.000000E+00  0.000000E+00  0.000000E+00  0.000000E+00  1.095954E+00  0.000000E+00  0.000000E+00 -1.095954E+00                                                                                                                                                                                                                                                                                                                                                                                                                                                                                              
  9.350000E+02  1.250000E+02 -5.425000E+03  1.062107E-06  0.000000E+00  0.000000E+00 -1.062107E-06  6.203301E-09  0.000000E+00  0.000000E+00 -6.203301E-09  0.000000E+00  0.000000E+00  0.000000E+00  0.000000E+00  0.000000E+00  0.000000E+00  0.000000E+00  0.000000E+00  1.097201E+00  0.000000E+00  0.000000E+00 -1.097201E+00                                                                                                                                                                                                                                                                                                                                                                                                                                                                                              
  1.185000E+03  1.250000E+02 -5.425000E+03  1.068012E-06  0.000000E+00  0.000000E+00 -1.068012E-06  6.237634E-09  0.000000E+00  0.000000E+00 -6.237634E-09  0.000000E+00  0.000000E+00  0.000000E+00  0.000000E+00  0.000000E+00  0.000000E+00  0.000000E+00  0.000000E+00  1.103209E+00  0.000000E+00  0.000000E+00 -1.103209E+00                                                                                                                                                                                                                                                                                                                                                                                                                                                                                              
  1.435000E+03  1.250000E+02 -5.425000E+03  1.074869E-06  0.000000E+00  0.000000E+00 -1.074869E-06  6.277493E-09  0.000000E+00  0.000000E+00 -6.277493E-09  0.000000E+00  0.000000E+00  0.000000E+00  0.000000E+00  0.000000E+00  0.000000E+00  0.000000E+00  0.000000E+00  1.110180E+00  0.000000E+00  0.000000E+00 -1.110180E+00                                                                                                                                                                                                                                                                                                                                                                                                                                                                                              
  1.250000E+02  1.250000E+02 -5.225000E+03  2.142732E-06  3.555465E-09 -3.127943E-11 -2.142729E-06  1.240758E-08  2.062892E-11 -1.814817E-13 -1.240757E-08  0.000000E+00  0.000000E+00  0.000000E+00  0.000000E+00  0.000000E+00  0.000000E+00  0.000000E+00  0.000000E+00  2.157905E+00  3.672545E-03 -3.230944E-05 -2.157902E+00                                                                                                                                                                                                                                                                                                                                                                                                                                                                                              
  3.750000E+02  1.250000E+02 -5.225000E+03  2.129190E-06  5.865191E-09 -4.695890E-11 -2.129182E-06  1.232936E-08  3.403039E-11 -2.724627E-13 -1.232931E-08  0.000000E+00  0.000000E+00  0.000000E+00  0.000000E+00  0.000000E+00  0.000000E+00  0.000000E+00  0.000000E+00  2.143882E+00  6.058519E-03 -4.850907E-05 -2.143873E+00                                                                                                                                                                                                                                                                                                                                                                                                                                                                                              
  6.250000E+02  1.250000E+02 -5.225000E+03  2.121470E-06  1.334446E-09 -7.264643E-11 -2.121469E-06  1.228440E-08  7.742664E-12 -4.215134E-13 -1.228440E-08  0.000000E+00  0.000000E+00  0.000000E+00  0.000000E+00  0.000000E+00  0.000000E+00  0.000000E+00  0.000000E+00  2.135471E+00  1.378473E-03 -7.504744E-05 -2.135470E+00                                                                                                                                                                                                                                                                                                                                                                                                                                                                                              
  7.600000E+02  1.250000E+02 -5.225000E+03  2.122630E-06 -2.222307E-09 -9.214049E-11 -2.122629E-06  1.229112E-08 -1.289434E-11 -5.346199E-13 -1.229111E-08  0.000000E+00  0.000000E+00  0.000000E+00  0.000000E+00  0.000000E+00  0.000000E+00  0.000000E+00  0.000000E+00  2.136683E+00 -2.295723E-03 -9.518445E-05 -2.136682E+00                                                                                                                                                                                                                                                                                                                                                                                                                                                                                              
  7.800000E+02  1.250000E+02 -5.225000E+03  2.122877E-06 -2.765356E-09 -9.510258E-11 -2.122875E-06  1.229257E-08 -1.604521E-11 -5.518062E-13 -1.229256E-08  0.000000E+00  0.000000E+00  0.000000E+00  0.000000E+00  0.000000E+00  0.000000E+00  0.000000E+00  0.000000E+00  2.136961E+00 -2.856711E-03 -9.824426E-05 -2.136959E+00                                                                                                                                                                                                                                                                                                                                                                                                                                                                                              
  8.000000E+02  1.250000E+02 -5.225000E+03  2.123205E-06 -3.305294E-09 -9.813826E-11 -2.123202E-06  1.229450E-08 -1.917803E-11 -5.694197E-13 -1.229449E-08  0.000000E+00  0.000000E+00  0.000000E+00  0.000000E+00  0.000000E+00  0.000000E+00  0.000000E+00  0.000000E+00  2.137355E+00 -3.414498E-03 -1.013802E-04 -2.137352E+00                                                                                                                                                                                                                                                                                                                                                                                                                                                                                              
  9.350000E+02  1.250000E+02 -5.225000E+03  2.125909E-06 -6.567681E-09 -1.191231E-10 -2.125899E-06  1.231055E-08 -3.810640E-11 -6.911776E-13 -1.231050E-08  0.000000E+00  0.000000E+00  0.000000E+00  0.000000E+00  0.000000E+00  0.000000E+00  0.000000E+00  0.000000E+00  2.140642E+00 -6.784276E-03 -1.230591E-04 -2.140631E+00                                                                                                                                                                                                                                                                                                                                                                                                                                                                                              
  1.185000E+03  1.250000E+02 -5.225000E+03  2.139863E-06 -1.033244E-08 -1.696529E-10 -2.139838E-06  1.239115E-08 -5.994813E-11 -9.843231E-13 -1.239101E-08  0.000000E+00  0.000000E+00  0.000000E+00  0.000000E+00  0.000000E+00  0.000000E+00  0.000000E+00  0.000000E+00  2.155001E+00 -1.067237E-02 -1.752436E-04 -2.154975E+00                                                                                                                                                                                                                                                                                                                                                                                                                                                                                              
  1.435000E+03  1.250000E+02 -5.225000E+03  2.159800E-06 -5.551724E-09 -2.152133E-10 -2.159793E-06  1.250612E-08 -3.221007E-11 -1.248605E-12 -1.250608E-08  0.000000E+00  0.000000E+00  0.000000E+00  0.000000E+00  0.000000E+00  0.000000E+00  0.000000E+00  0.000000E+00  2.175358E+00 -5.734107E-03 -2.222831E-04 -2.175350E+00                                                                                                                                                                                                                                                                                                                                                                                                                                                                                              
  1.250000E+02  1.250000E+02 -4.975000E+03  2.172363E-06  1.238193E-08 -2.127183E-11 -2.172328E-06  1.232604E-08  7.059005E-11 -1.212811E-13 -1.232584E-08  0.000000E+00  0.000000E+00  0.000000E+00  0.000000E+00  0.000000E+00  0.000000E+00  0.000000E+00  0.000000E+00  2.023680E+00  1.215202E-02 -2.087684E-05 -2.023643E+00                                                                                                                                                                                                                                                                                                                                                                                                                                                                                              
  3.750000E+02  1.250000E+02 -4.975000E+03  2.136660E-06  1.918927E-08 -6.409026E-11 -2.136574E-06  1.211817E-08  1.093937E-10 -3.653665E-13 -1.211768E-08  0.000000E+00  0.000000E+00  0.000000E+00  0.000000E+00  0.000000E+00  0.000000E+00  0.000000E+00  0.000000E+00  1.981639E+00  1.882917E-02 -6.286441E-05 -1.981550E+00                                                                                                                                                                                                                                                                                                                                                                                                                                                                                              
  6.250000E+02  1.250000E+02 -4.975000E+03  2.124248E-06  4.968438E-09 -1.185370E-10 -2.124242E-06  1.204211E-08  2.832215E-11 -6.756411E-13 -1.204207E-08  0.000000E+00  0.000000E+00  0.000000E+00  0.000000E+00  0.000000E+00  0.000000E+00  0.000000E+00  0.000000E+00  1.962347E+00  4.874583E-03 -1.161884E-04 -1.962341E+00                                                                                                                                                                                                                                                                                                                                                                                                                                                                                              
  7.600000E+02  1.250000E+02 -4.975000E+03  2.124406E-06 -4.430972E-09 -1.576246E-10 -2.124401E-06  1.204354E-08 -2.525608E-11 -8.984442E-13 -1.204351E-08  0.000000E+00  0.000000E+00  0.000000E+00  0.000000E+00  0.000000E+00  0.000000E+00  0.000000E+00  0.000000E+00  1.963202E+00 -4.343484E-03 -1.545098E-04 -1.963197E+00                                                                                                                                                                                                                                                                                                                                                                                                                                                                                              
  7.800000E+02  1.250000E+02 -4.975000E+03  2.124589E-06 -5.940561E-09 -1.635920E-10 -2.124581E-06  1.204481E-08 -3.386095E-11 -9.324650E-13 -1.204476E-08  0.000000E+00  0.000000E+00  0.000000E+00  0.000000E+00  0.000000E+00  0.000000E+00  0.000000E+00  0.000000E+00  1.963666E+00 -5.823541E-03 -1.603641E-04 -1.963657E+00                                                                                                                                                                                                                                                                                                                                                                                                                                                                                              
  8.000000E+02  1.250000E+02 -4.975000E+03  2.124993E-06 -7.445978E-09 -1.697446E-10 -2.124980E-06  1.204756E-08 -4.244373E-11 -9.675503E-13 -1.204748E-08  0.000000E+00  0.000000E+00  0.000000E+00  0.000000E+00  0.000000E+00  0.000000E+00  0.000000E+00  0.000000E+00  1.964627E+00 -7.301677E-03 -1.664056E-04 -1.964614E+00                                                                                                                                                                                                                                                                                                                                                                                                                                                                                              
  9.350000E+02  1.250000E+02 -4.975000E+03  2.128654E-06 -1.658782E-08 -2.125515E-10 -2.128589E-06  1.207223E-08 -9.456453E-11 -1.211722E-12 -1.207186E-08  0.000000E+00  0.000000E+00  0.000000E+00  0.000000E+00  0.000000E+00  0.000000E+00  0.000000E+00  0.000000E+00  1.973020E+00 -1.627563E-02 -2.084832E-04 -1.972953E+00                                                                                                                                                                                                                                                                                                                                                                                                                                                                                              
  1.185000E+03  1.250000E+02 -4.975000E+03  2.146894E-06 -3.078422E-08 -3.312443E-10 -2.146673E-06  1.217978E-08 -1.755082E-10 -1.888524E-12 -1.217851E-08  0.000000E+00  0.000000E+00  0.000000E+00  0.000000E+00  0.000000E+00  0.000000E+00  0.000000E+00  0.000000E+00  1.996214E+00 -3.021738E-02 -3.250455E-04 -1.995985E+00                                                                                                                                                                                                                                                                                                                                                                                                                                                                                              
  1.435000E+03  1.250000E+02 -4.975000E+03  2.196271E-06 -1.829388E-08 -4.637745E-10 -2.196195E-06  1.246539E-08 -1.043010E-10 -2.644346E-12 -1.246495E-08  0.000000E+00  0.000000E+00  0.000000E+00  0.000000E+00  0.000000E+00  0.000000E+00  0.000000E+00  0.000000E+00  2.052065E+00 -1.796079E-02 -4.553327E-04 -2.051987E+00                                                                                                                                                                                                                                                                                                                                                                                                                                                                                              
  1.250000E+02  1.250000E+02 -4.725000E+03  2.265962E-06  3.295427E-08  8.516186E-11 -2.265723E-06  1.232314E-08  1.822412E-10  4.714702E-13 -1.232180E-08  0.000000E+00  0.000000E+00  0.000000E+00  0.000000E+00  0.000000E+00  0.000000E+00  0.000000E+00  0.000000E+00  1.489500E+00  2.908700E-02  7.516789E-05 -1.489216E+00                                                                                                                                                                                                                                                                                                                                                                                                                                                                                              
  3.750000E+02  1.250000E+02 -4.725000E+03  2.156586E-06  4.243048E-08 -1.945644E-11 -2.156169E-06  1.170595E-08  2.345503E-10 -1.074941E-13 -1.170360E-08  0.000000E+00  0.000000E+00  0.000000E+00  0.000000E+00  0.000000E+00  0.000000E+00  0.000000E+00  0.000000E+00  1.372566E+00  3.737115E-02 -1.700863E-05 -1.372057E+00                                                                                                                                                                                                                                                                                                                                                                                                                                                                                              
  6.250000E+02  1.250000E+02 -4.725000E+03  2.154563E-06  9.144914E-09 -7.977214E-11 -2.154544E-06  1.168158E-08  5.048165E-11 -4.399925E-13 -1.168147E-08  0.000000E+00  0.000000E+00  0.000000E+00  0.000000E+00  0.000000E+00  0.000000E+00  0.000000E+00  0.000000E+00  1.358628E+00  7.996574E-03 -6.919883E-05 -1.358604E+00                                                                                                                                                                                                                                                                                                                                                                                                                                                                                              
  7.600000E+02  1.250000E+02 -4.725000E+03  2.153786E-06 -1.452537E-09 -1.181575E-10 -2.153785E-06  1.167824E-08 -8.012825E-12 -6.518051E-13 -1.167823E-08  0.000000E+00  0.000000E+00  0.000000E+00  0.000000E+00  0.000000E+00  0.000000E+00  0.000000E+00  0.000000E+00  1.358742E+00 -1.261103E-03 -1.025642E-04 -1.358742E+00                                                                                                                                                                                                                                                                                                                                                                                                                                                                                              
  7.800000E+02  1.250000E+02 -4.725000E+03  2.153670E-06 -3.051900E-09 -1.241626E-10 -2.153668E-06  1.167803E-08 -1.683698E-11 -6.849736E-13 -1.167801E-08  0.000000E+00  0.000000E+00  0.000000E+00  0.000000E+00  0.000000E+00  0.000000E+00  0.000000E+00  0.000000E+00  1.358984E+00 -2.650806E-03 -1.078072E-04 -1.358981E+00                                                                                                                                                                                                                                                                                                                                                                                                                                                                                              
  8.000000E+02  1.250000E+02 -4.725000E+03  2.153575E-06 -4.716591E-09 -1.305313E-10 -2.153570E-06  1.167837E-08 -2.603063E-11 -7.201978E-13 -1.167834E-08  0.000000E+00  0.000000E+00  0.000000E+00  0.000000E+00  0.000000E+00  0.000000E+00  0.000000E+00  0.000000E+00  1.359579E+00 -4.109275E-03 -1.134017E-04 -1.359572E+00                                                                                                                                                                                                                                                                                                                                                                                                                                                                                              
  9.350000E+02  1.250000E+02 -4.725000E+03  2.153509E-06 -2.097278E-08 -1.761259E-10 -2.153407E-06  1.168540E-08 -1.158928E-10 -9.727901E-13 -1.168483E-08  0.000000E+00  0.000000E+00  0.000000E+00  0.000000E+00  0.000000E+00  0.000000E+00  0.000000E+00  0.000000E+00  1.365339E+00 -1.840857E-02 -1.537525E-04 -1.365215E+00                                                                                                                                                                                                                                                                                                                                                                                                                                                                                              
  1.185000E+03  1.250000E+02 -4.725000E+03  2.159970E-06 -6.596799E-08 -3.501108E-10 -2.158963E-06  1.173339E-08 -3.650531E-10 -1.936354E-12 -1.172771E-08  0.000000E+00  0.000000E+00  0.000000E+00  0.000000E+00  0.000000E+00  0.000000E+00  0.000000E+00  0.000000E+00  1.384965E+00 -5.840658E-02 -3.075716E-04 -1.383732E+00                                                                                                                                                                                                                                                                                                                                                                                                                                                                                              