Title="TOUGHREACT V3.30-OMP flowvector.tec: Liq & Gas Fluxes (kg/s/m^2), Pore Velocities (m/s), & Heat Fluxes (J/s/m2)"                                                                                                                                                                                                                                                                                                                                                                                                                                                                                                                                                                                                                                                                                                         
Variables= "X(m)"     "Y(m)"      "Z(m)"     "FluxLiq"   "FluxLiq_X"   "FluxLiq_Y"   "FluxLiq_Z"   "PorVelLiq"  "PorVelLiqX"  "PorVelLiqY"  "PorVelLiqZ"     "FluxGas"   "FluxGas_X"   "FluxGas_Y"   "FluxGas_Z"   "PorVelGas"  "PorVelGasX"  "PorVelGasY"  "PorVelGasZ"    "HeatFlux"  "HeatFlux_X"  "HeatFlux_Y"  "HeatFlux_Z"                                                                                                                                                                                                                                                                                                                                                                                                                                                                                                
Zone T= "6.00000000E+10 sec" I=     9 J=    10 K=    23 F=Point
  1.250000E+02  1.250000E+02 -5.425000E+03  1.021067E-06  0.000000E+00  0.000000E+00 -1.021067E-06  5.919107E-09  0.000000E+00  0.000000E+00 -5.919107E-09  0.000000E+00  0.000000E+00  0.000000E+00  0.000000E+00  0.000000E+00  0.000000E+00  0.000000E+00  0.000000E+00  1.000131E+00  0.000000E+00  0.000000E+00 -1.000131E+00                                                                                                                                                                                                                                                                                                                                                                                                                                                                                              
  3.750000E+02  1.250000E+02 -5.425000E+03  1.019864E-06  0.000000E+00  0.000000E+00 -1.019864E-06  5.911396E-09  0.000000E+00  0.000000E+00 -5.911396E-09  0.000000E+00  0.000000E+00  0.000000E+00  0.000000E+00  0.000000E+00  0.000000E+00  0.000000E+00  0.000000E+00  9.980130E-01  0.000000E+00  0.000000E+00 -9.980130E-01                                                                                                                                                                                                                                                                                                                                                                                                                                                                                              
  6.250000E+02  1.250000E+02 -5.425000E+03  1.018874E-06  0.000000E+00  0.000000E+00 -1.018874E-06  5.904968E-09  0.000000E+00  0.000000E+00 -5.904968E-09  0.000000E+00  0.000000E+00  0.000000E+00  0.000000E+00  0.000000E+00  0.000000E+00  0.000000E+00  0.000000E+00  9.961694E-01  0.000000E+00  0.000000E+00 -9.961694E-01                                                                                                                                                                                                                                                                                                                                                                                                                                                                                              
  7.600000E+02  1.250000E+02 -5.425000E+03  1.019049E-06  0.000000E+00  0.000000E+00 -1.019049E-06  5.906035E-09  0.000000E+00  0.000000E+00 -5.906035E-09  0.000000E+00  0.000000E+00  0.000000E+00  0.000000E+00  0.000000E+00  0.000000E+00  0.000000E+00  0.000000E+00  9.964115E-01  0.000000E+00  0.000000E+00 -9.964115E-01                                                                                                                                                                                                                                                                                                                                                                                                                                                                                              
  7.800000E+02  1.250000E+02 -5.425000E+03  1.019090E-06  0.000000E+00  0.000000E+00 -1.019090E-06  5.906302E-09  0.000000E+00  0.000000E+00 -5.906302E-09  0.000000E+00  0.000000E+00  0.000000E+00  0.000000E+00  0.000000E+00  0.000000E+00  0.000000E+00  0.000000E+00  9.964858E-01  0.000000E+00  0.000000E+00 -9.964858E-01                                                                                                                                                                                                                                                                                                                                                                                                                                                                                              
  8.000000E+02  1.250000E+02 -5.425000E+03  1.019153E-06  0.000000E+00  0.000000E+00 -1.019153E-06  5.906724E-09  0.000000E+00  0.000000E+00 -5.906724E-09  0.000000E+00  0.000000E+00  0.000000E+00  0.000000E+00  0.000000E+00  0.000000E+00  0.000000E+00  0.000000E+00  9.966198E-01  0.000000E+00  0.000000E+00 -9.966198E-01                                                                                                                                                                                                                                                                                                                                                                                                                                                                                              
  9.350000E+02  1.250000E+02 -5.425000E+03  1.019658E-06  0.000000E+00  0.000000E+00 -1.019658E-06  5.910120E-09  0.000000E+00  0.000000E+00 -5.910120E-09  0.000000E+00  0.000000E+00  0.000000E+00  0.000000E+00  0.000000E+00  0.000000E+00  0.000000E+00  0.000000E+00  9.977064E-01  0.000000E+00  0.000000E+00 -9.977064E-01                                                                                                                                                                                                                                                                                                                                                                                                                                                                                              
  1.185000E+03  1.250000E+02 -5.425000E+03  1.020796E-06  0.000000E+00  0.000000E+00 -1.020796E-06  5.917226E-09  0.000000E+00  0.000000E+00 -5.917226E-09  0.000000E+00  0.000000E+00  0.000000E+00  0.000000E+00  0.000000E+00  0.000000E+00  0.000000E+00  0.000000E+00  9.994737E-01  0.000000E+00  0.000000E+00 -9.994737E-01                                                                                                                                                                                                                                                                                                                                                                                                                                                                                              
  1.435000E+03  1.250000E+02 -5.425000E+03  1.022235E-06  0.000000E+00  0.000000E+00 -1.022235E-06  5.926370E-09  0.000000E+00  0.000000E+00 -5.926370E-09  0.000000E+00  0.000000E+00  0.000000E+00  0.000000E+00  0.000000E+00  0.000000E+00  0.000000E+00  0.000000E+00  1.001908E+00  0.000000E+00  0.000000E+00 -1.001908E+00                                                                                                                                                                                                                                                                                                                                                                                                                                                                                              
  1.250000E+02  1.250000E+02 -5.225000E+03  2.052370E-06  6.673459E-10  1.513881E-12 -2.052370E-06  1.170650E-08  3.813090E-12  8.651166E-15 -1.170650E-08  0.000000E+00  0.000000E+00  0.000000E+00  0.000000E+00  0.000000E+00  0.000000E+00  0.000000E+00  0.000000E+00  1.892506E+00  6.536627E-04  1.482841E-06 -1.892506E+00                                                                                                                                                                                                                                                                                                                                                                                                                                                                                              
  3.750000E+02  1.250000E+02 -5.225000E+03  2.049294E-06  1.182797E-09  2.042960E-13 -2.049294E-06  1.168540E-08  6.757561E-12  1.167165E-15 -1.168540E-08  0.000000E+00  0.000000E+00  0.000000E+00  0.000000E+00  0.000000E+00  0.000000E+00  0.000000E+00  0.000000E+00  1.885673E+00  1.158070E-03  1.999188E-07 -1.885672E+00                                                                                                                                                                                                                                                                                                                                                                                                                                                                                              
  6.250000E+02  1.250000E+02 -5.225000E+03  2.046845E-06  2.965126E-10 -2.190624E-12 -2.046845E-06  1.166834E-08  1.693935E-12 -1.251232E-14 -1.166834E-08  0.000000E+00  0.000000E+00  0.000000E+00  0.000000E+00  0.000000E+00  0.000000E+00  0.000000E+00  0.000000E+00  1.880002E+00  2.903322E-04 -2.141811E-06 -1.880002E+00                                                                                                                                                                                                                                                                                                                                                                                                                                                                                              
  7.600000E+02  1.250000E+02 -5.225000E+03  2.047147E-06 -4.994256E-10 -3.525347E-12 -2.047146E-06  1.167033E-08 -2.852647E-12 -2.013632E-14 -1.167033E-08  0.000000E+00  0.000000E+00  0.000000E+00  0.000000E+00  0.000000E+00  0.000000E+00  0.000000E+00  0.000000E+00  1.880585E+00 -4.883407E-04 -3.447040E-06 -1.880585E+00                                                                                                                                                                                                                                                                                                                                                                                                                                                                                              
  7.800000E+02  1.250000E+02 -5.225000E+03  2.047239E-06 -6.214019E-10 -3.728237E-12 -2.047239E-06  1.167098E-08 -3.549408E-12 -2.129539E-14 -1.167097E-08  0.000000E+00  0.000000E+00  0.000000E+00  0.000000E+00  0.000000E+00  0.000000E+00  0.000000E+00  0.000000E+00  1.880799E+00 -6.076428E-04 -3.645547E-06 -1.880799E+00                                                                                                                                                                                                                                                                                                                                                                                                                                                                                              
  8.000000E+02  1.250000E+02 -5.225000E+03  2.047403E-06 -7.385070E-10 -3.935734E-12 -2.047403E-06  1.167216E-08 -4.218533E-12 -2.248104E-14 -1.167216E-08  0.000000E+00  0.000000E+00  0.000000E+00  0.000000E+00  0.000000E+00  0.000000E+00  0.000000E+00  0.000000E+00  1.881215E+00 -7.224098E-04 -3.848723E-06 -1.881215E+00                                                                                                                                                                                                                                                                                                                                                                                                                                                                                              
  9.350000E+02  1.250000E+02 -5.225000E+03  2.048741E-06 -1.106510E-09 -5.363501E-12 -2.048741E-06  1.168179E-08 -6.321589E-12 -3.064141E-14 -1.168179E-08  0.000000E+00  0.000000E+00  0.000000E+00  0.000000E+00  0.000000E+00  0.000000E+00  0.000000E+00  0.000000E+00  1.884617E+00 -1.083142E-03 -5.248039E-06 -1.884616E+00                                                                                                                                                                                                                                                                                                                                                                                                                                                                                              
  1.185000E+03  1.250000E+02 -5.225000E+03  2.051095E-06 -1.540818E-09 -9.754705E-12 -2.051095E-06  1.169772E-08 -8.804433E-12 -5.573796E-14 -1.169772E-08  0.000000E+00  0.000000E+00  0.000000E+00  0.000000E+00  0.000000E+00  0.000000E+00  0.000000E+00  0.000000E+00  1.889593E+00 -1.509468E-03 -9.550979E-06 -1.889593E+00                                                                                                                                                                                                                                                                                                                                                                                                                                                                                              
  1.435000E+03  1.250000E+02 -5.225000E+03  2.054744E-06 -8.319009E-10 -1.561469E-11 -2.054743E-06  1.172253E-08 -4.754079E-12 -8.924639E-14 -1.172253E-08  0.000000E+00  0.000000E+00  0.000000E+00  0.000000E+00  0.000000E+00  0.000000E+00  0.000000E+00  0.000000E+00  1.897507E+00 -8.153588E-04 -1.530435E-05 -1.897507E+00                                                                                                                                                                                                                                                                                                                                                                                                                                                                                              
  1.250000E+02  1.250000E+02 -4.975000E+03  2.080143E-06  9.128695E-10  3.604882E-12 -2.080143E-06  1.142808E-08  5.045497E-12  1.993212E-14 -1.142808E-08  0.000000E+00  0.000000E+00  0.000000E+00  0.000000E+00  0.000000E+00  0.000000E+00  0.000000E+00  0.000000E+00  1.575674E+00  7.898954E-04  3.119263E-06 -1.575674E+00                                                                                                                                                                                                                                                                                                                                                                                                                                                                                              
  3.750000E+02  1.250000E+02 -4.975000E+03  2.075279E-06  1.567549E-09  1.714484E-12 -2.075278E-06  1.139371E-08  8.661488E-12  9.472638E-15 -1.139370E-08  0.000000E+00  0.000000E+00  0.000000E+00  0.000000E+00  0.000000E+00  0.000000E+00  0.000000E+00  0.000000E+00  1.563887E+00  1.354414E-03  1.478370E-06 -1.563887E+00                                                                                                                                                                                                                                                                                                                                                                                                                                                                                              
  6.250000E+02  1.250000E+02 -4.975000E+03  2.071762E-06  4.403113E-10 -9.473184E-13 -2.071762E-06  1.136823E-08  2.432297E-12 -5.230754E-15 -1.136823E-08  0.000000E+00  0.000000E+00  0.000000E+00  0.000000E+00  0.000000E+00  0.000000E+00  0.000000E+00  0.000000E+00  1.554981E+00  3.801602E-04 -8.144927E-07 -1.554981E+00                                                                                                                                                                                                                                                                                                                                                                                                                                                                                              
  7.600000E+02  1.250000E+02 -4.975000E+03  2.071750E-06 -5.192861E-10 -2.148134E-12 -2.071750E-06  1.136872E-08 -2.867455E-12 -1.186189E-14 -1.136872E-08  0.000000E+00  0.000000E+00  0.000000E+00  0.000000E+00  0.000000E+00  0.000000E+00  0.000000E+00  0.000000E+00  1.555501E+00 -4.466190E-04 -1.847427E-06 -1.555501E+00                                                                                                                                                                                                                                                                                                                                                                                                                                                                                              
  7.800000E+02  1.250000E+02 -4.975000E+03  2.071855E-06 -7.001243E-10 -2.327395E-12 -2.071855E-06  1.136952E-08 -3.866169E-12 -1.285206E-14 -1.136952E-08  0.000000E+00  0.000000E+00  0.000000E+00  0.000000E+00  0.000000E+00  0.000000E+00  0.000000E+00  0.000000E+00  1.555805E+00 -6.022533E-04 -2.001811E-06 -1.555805E+00                                                                                                                                                                                                                                                                                                                                                                                                                                                                                              
  8.000000E+02  1.250000E+02 -4.975000E+03  2.072138E-06 -8.743021E-10 -2.507832E-12 -2.072138E-06  1.137153E-08 -4.828633E-12 -1.384910E-14 -1.137153E-08  0.000000E+00  0.000000E+00  0.000000E+00  0.000000E+00  0.000000E+00  0.000000E+00  0.000000E+00  0.000000E+00  1.556473E+00 -7.528994E-04 -2.157484E-06 -1.556473E+00                                                                                                                                                                                                                                                                                                                                                                                                                                                                                              
  9.350000E+02  1.250000E+02 -4.975000E+03  2.074567E-06 -1.241578E-09 -3.724045E-12 -2.074566E-06  1.138867E-08 -6.859597E-12 -2.057339E-14 -1.138866E-08  0.000000E+00  0.000000E+00  0.000000E+00  0.000000E+00  0.000000E+00  0.000000E+00  0.000000E+00  0.000000E+00  1.562102E+00 -1.071647E-03 -3.209577E-06 -1.562102E+00                                                                                                                                                                                                                                                                                                                                                                                                                                                                                              
  1.185000E+03  1.250000E+02 -4.975000E+03  2.076863E-06 -1.912699E-09 -8.509681E-12 -2.076862E-06  1.140652E-08 -1.057368E-11 -4.703609E-14 -1.140651E-08  0.000000E+00  0.000000E+00  0.000000E+00  0.000000E+00  0.000000E+00  0.000000E+00  0.000000E+00  0.000000E+00  1.569218E+00 -1.656440E-03 -7.352002E-06 -1.569217E+00                                                                                                                                                                                                                                                                                                                                                                                                                                                                                              
  1.435000E+03  1.250000E+02 -4.975000E+03  2.082728E-06 -1.150217E-09 -1.711389E-11 -2.082728E-06  1.144768E-08 -6.360312E-12 -9.467659E-14 -1.144768E-08  0.000000E+00  0.000000E+00  0.000000E+00  0.000000E+00  0.000000E+00  0.000000E+00  0.000000E+00  0.000000E+00  1.583298E+00 -9.976998E-04 -1.484527E-05 -1.583297E+00                                                                                                                                                                                                                                                                                                                                                                                                                                                                                              
  1.250000E+02  1.250000E+02 -4.725000E+03  2.112307E-06 -1.880183E-09 -3.320963E-12 -2.112306E-06  1.108945E-08 -9.865285E-12 -1.743342E-14 -1.108944E-08  0.000000E+00  0.000000E+00  0.000000E+00  0.000000E+00  0.000000E+00  0.000000E+00  0.000000E+00  0.000000E+00  1.108814E+00 -1.215693E-03 -2.163500E-06 -1.108813E+00                                                                                                                                                                                                                                                                                                                                                                                                                                                                                              
  3.750000E+02  1.250000E+02 -4.725000E+03  2.108215E-06 -3.346697E-09 -9.120588E-13 -2.108212E-06  1.106005E-08 -1.755342E-11 -4.783108E-15 -1.106004E-08  0.000000E+00  0.000000E+00  0.000000E+00  0.000000E+00  0.000000E+00  0.000000E+00  0.000000E+00  0.000000E+00  1.101176E+00 -2.158649E-03 -5.897151E-07 -1.101173E+00                                                                                                                                                                                                                                                                                                                                                                                                                                                                                              
  6.250000E+02  1.250000E+02 -4.725000E+03  2.105464E-06 -8.578305E-10  4.235746E-12 -2.105464E-06  1.103967E-08 -4.498240E-12  2.219742E-14 -1.103967E-08  0.000000E+00  0.000000E+00  0.000000E+00  0.000000E+00  0.000000E+00  0.000000E+00  0.000000E+00  0.000000E+00  1.095817E+00 -5.515770E-04  2.723545E-06 -1.095817E+00                                                                                                                                                                                                                                                                                                                                                                                                                                                                                              
  7.600000E+02  1.250000E+02 -4.725000E+03  2.105608E-06  1.414915E-09  6.471456E-12 -2.105608E-06  1.104083E-08  7.415220E-12  3.391546E-14 -1.104083E-08  0.000000E+00  0.000000E+00  0.000000E+00  0.000000E+00  0.000000E+00  0.000000E+00  0.000000E+00  0.000000E+00  1.096110E+00  9.099852E-04  4.162755E-06 -1.096110E+00                                                                                                                                                                                                                                                                                                                                                                                                                                                                                              
  7.800000E+02  1.250000E+02 -4.725000E+03  2.105699E-06  1.807767E-09  6.804824E-12 -2.105699E-06  1.104151E-08  9.474424E-12  3.566347E-14 -1.104151E-08  0.000000E+00  0.000000E+00  0.000000E+00  0.000000E+00  0.000000E+00  0.000000E+00  0.000000E+00  0.000000E+00  1.096290E+00  1.162968E-03  4.378037E-06 -1.096289E+00                                                                                                                                                                                                                                                                                                                                                                                                                                                                                              
  8.000000E+02  1.250000E+02 -4.725000E+03  2.105898E-06  2.183538E-09  7.142577E-12 -2.105897E-06  1.104300E-08  1.144559E-11  3.743555E-14 -1.104299E-08  0.000000E+00  0.000000E+00  0.000000E+00  0.000000E+00  0.000000E+00  0.000000E+00  0.000000E+00  0.000000E+00  1.096682E+00  1.405133E-03  4.597179E-06 -1.096681E+00                                                                                                                                                                                                                                                                                                                                                                                                                                                                                              
  9.350000E+02  1.250000E+02 -4.725000E+03  2.107605E-06  2.952432E-09  9.406915E-12 -2.107603E-06  1.105567E-08  1.548268E-11  4.932510E-14 -1.105566E-08  0.000000E+00  0.000000E+00  0.000000E+00  0.000000E+00  0.000000E+00  0.000000E+00  0.000000E+00  0.000000E+00  1.100041E+00  1.904147E-03  6.075150E-06 -1.100040E+00                                                                                                                                                                                                                                                                                                                                                                                                                                                                                              
  1.185000E+03  1.250000E+02 -4.725000E+03  2.109895E-06  3.983195E-09  1.800742E-11 -2.109892E-06  1.107261E-08  2.090325E-11  9.448080E-14 -1.107259E-08  0.000000E+00  0.000000E+00  0.000000E+00  0.000000E+00  0.000000E+00  0.000000E+00  0.000000E+00  0.000000E+00  1.104433E+00  2.579203E-03  1.168473E-05 -1.104430E+00                                                                                                                                                                                                                                                                                                                                                                                                                                                                                              