Title="TOUGHREACT V3.30-OMP flowvector.tec: Liq & Gas Fluxes (kg/s/m^2), Pore Velocities (m/s), & Heat Fluxes (J/s/m2)"                                                                                                                                                                                                                                                                                                                                                                                                                                                                                                                                                                                                                                                                                                         
Variables= "X(m)"     "Y(m)"      "Z(m)"     "FluxLiq"   "FluxLiq_X"   "FluxLiq_Y"   "FluxLiq_Z"   "PorVelLiq"  "PorVelLiqX"  "PorVelLiqY"  "PorVelLiqZ"     "FluxGas"   "FluxGas_X"   "FluxGas_Y"   "FluxGas_Z"   "PorVelGas"  "PorVelGasX"  "PorVelGasY"  "PorVelGasZ"    "HeatFlux"  "HeatFlux_X"  "HeatFlux_Y"  "HeatFlux_Z"                                                                                                                                                                                                                                                                                                                                                                                                                                                                                                
Zone T= "9.00000000E+10 sec" I=     9 J=    10 K=    23 F=Point
  1.250000E+02  1.250000E+02 -5.425000E+03  9.852821E-07  0.000000E+00  0.000000E+00 -9.852821E-07  5.670835E-09  0.000000E+00  0.000000E+00 -5.670835E-09  0.000000E+00  0.000000E+00  0.000000E+00  0.000000E+00  0.000000E+00  0.000000E+00  0.000000E+00  0.000000E+00  9.123918E-01  0.000000E+00  0.000000E+00 -9.123918E-01                                                                                                                                                                                                                                                                                                                                                                                                                                                                                              
  3.750000E+02  1.250000E+02 -5.425000E+03  9.838771E-07  0.000000E+00  0.000000E+00 -9.838771E-07  5.661600E-09  0.000000E+00  0.000000E+00 -5.661600E-09  0.000000E+00  0.000000E+00  0.000000E+00  0.000000E+00  0.000000E+00  0.000000E+00  0.000000E+00  0.000000E+00  9.095642E-01  0.000000E+00  0.000000E+00 -9.095642E-01                                                                                                                                                                                                                                                                                                                                                                                                                                                                                              
  6.250000E+02  1.250000E+02 -5.425000E+03  9.827271E-07  0.000000E+00  0.000000E+00 -9.827271E-07  5.653999E-09  0.000000E+00  0.000000E+00 -5.653999E-09  0.000000E+00  0.000000E+00  0.000000E+00  0.000000E+00  0.000000E+00  0.000000E+00  0.000000E+00  0.000000E+00  9.071914E-01  0.000000E+00  0.000000E+00 -9.071914E-01                                                                                                                                                                                                                                                                                                                                                                                                                                                                                              
  7.600000E+02  1.250000E+02 -5.425000E+03  9.828833E-07  0.000000E+00  0.000000E+00 -9.828833E-07  5.654982E-09  0.000000E+00  0.000000E+00 -5.654982E-09  0.000000E+00  0.000000E+00  0.000000E+00  0.000000E+00  0.000000E+00  0.000000E+00  0.000000E+00  0.000000E+00  9.074492E-01  0.000000E+00  0.000000E+00 -9.074492E-01                                                                                                                                                                                                                                                                                                                                                                                                                                                                                              
  7.800000E+02  1.250000E+02 -5.425000E+03  9.829277E-07  0.000000E+00  0.000000E+00 -9.829277E-07  5.655275E-09  0.000000E+00  0.000000E+00 -5.655275E-09  0.000000E+00  0.000000E+00  0.000000E+00  0.000000E+00  0.000000E+00  0.000000E+00  0.000000E+00  0.000000E+00  9.075398E-01  0.000000E+00  0.000000E+00 -9.075398E-01                                                                                                                                                                                                                                                                                                                                                                                                                                                                                              
  8.000000E+02  1.250000E+02 -5.425000E+03  9.830043E-07  0.000000E+00  0.000000E+00 -9.830043E-07  5.655794E-09  0.000000E+00  0.000000E+00 -5.655794E-09  0.000000E+00  0.000000E+00  0.000000E+00  0.000000E+00  0.000000E+00  0.000000E+00  0.000000E+00  0.000000E+00  9.077143E-01  0.000000E+00  0.000000E+00 -9.077143E-01                                                                                                                                                                                                                                                                                                                                                                                                                                                                                              
  9.350000E+02  1.250000E+02 -5.425000E+03  9.836207E-07  0.000000E+00  0.000000E+00 -9.836207E-07  5.659974E-09  0.000000E+00  0.000000E+00 -5.659974E-09  0.000000E+00  0.000000E+00  0.000000E+00  0.000000E+00  0.000000E+00  0.000000E+00  0.000000E+00  0.000000E+00  9.091250E-01  0.000000E+00  0.000000E+00 -9.091250E-01                                                                                                                                                                                                                                                                                                                                                                                                                                                                                              
  1.185000E+03  1.250000E+02 -5.425000E+03  9.847776E-07  0.000000E+00  0.000000E+00 -9.847776E-07  5.667427E-09  0.000000E+00  0.000000E+00 -5.667427E-09  0.000000E+00  0.000000E+00  0.000000E+00  0.000000E+00  0.000000E+00  0.000000E+00  0.000000E+00  0.000000E+00  9.112562E-01  0.000000E+00  0.000000E+00 -9.112562E-01                                                                                                                                                                                                                                                                                                                                                                                                                                                                                              
  1.435000E+03  1.250000E+02 -5.425000E+03  9.864268E-07  0.000000E+00  0.000000E+00 -9.864268E-07  5.678224E-09  0.000000E+00  0.000000E+00 -5.678224E-09  0.000000E+00  0.000000E+00  0.000000E+00  0.000000E+00  0.000000E+00  0.000000E+00  0.000000E+00  0.000000E+00  9.145191E-01  0.000000E+00  0.000000E+00 -9.145191E-01                                                                                                                                                                                                                                                                                                                                                                                                                                                                                              
  1.250000E+02  1.250000E+02 -5.225000E+03  1.982461E-06  5.166195E-10  1.970830E-12 -1.982461E-06  1.116951E-08  2.909228E-12  1.110062E-14 -1.116951E-08  0.000000E+00  0.000000E+00  0.000000E+00  0.000000E+00  0.000000E+00  0.000000E+00  0.000000E+00  0.000000E+00  1.689262E+00  4.784004E-04  1.825029E-06 -1.689262E+00                                                                                                                                                                                                                                                                                                                                                                                                                                                                                              
  3.750000E+02  1.250000E+02 -5.225000E+03  1.979093E-06  9.115411E-10  1.070720E-12 -1.979093E-06  1.114641E-08  5.132300E-12  6.028326E-15 -1.114641E-08  0.000000E+00  0.000000E+00  0.000000E+00  0.000000E+00  0.000000E+00  0.000000E+00  0.000000E+00  0.000000E+00  1.681833E+00  8.434933E-04  9.898477E-07 -1.681833E+00                                                                                                                                                                                                                                                                                                                                                                                                                                                                                              
  6.250000E+02  1.250000E+02 -5.225000E+03  1.976426E-06  2.462650E-10 -4.557732E-13 -1.976426E-06  1.112795E-08  1.386392E-12 -2.565180E-15 -1.112795E-08  0.000000E+00  0.000000E+00  0.000000E+00  0.000000E+00  0.000000E+00  0.000000E+00  0.000000E+00  0.000000E+00  1.675835E+00  2.278453E-04 -4.207418E-07 -1.675835E+00                                                                                                                                                                                                                                                                                                                                                                                                                                                                                              
  7.600000E+02  1.250000E+02 -5.225000E+03  1.976689E-06 -3.442626E-10 -1.273640E-12 -1.976689E-06  1.112974E-08 -1.937628E-12 -7.168511E-15 -1.112974E-08  0.000000E+00  0.000000E+00  0.000000E+00  0.000000E+00  0.000000E+00  0.000000E+00  0.000000E+00  0.000000E+00  1.676395E+00 -3.178511E-04 -1.175895E-06 -1.676395E+00                                                                                                                                                                                                                                                                                                                                                                                                                                                                                              
  7.800000E+02  1.250000E+02 -5.225000E+03  1.976785E-06 -4.373945E-10 -1.396279E-12 -1.976785E-06  1.113042E-08 -2.461858E-12 -7.858868E-15 -1.113042E-08  0.000000E+00  0.000000E+00  0.000000E+00  0.000000E+00  0.000000E+00  0.000000E+00  0.000000E+00  0.000000E+00  1.676615E+00 -4.038730E-04 -1.289192E-06 -1.676615E+00                                                                                                                                                                                                                                                                                                                                                                                                                                                                                              
  8.000000E+02  1.250000E+02 -5.225000E+03  1.976971E-06 -5.267668E-10 -1.520663E-12 -1.976971E-06  1.113173E-08 -2.965112E-12 -8.559198E-15 -1.113173E-08  0.000000E+00  0.000000E+00  0.000000E+00  0.000000E+00  0.000000E+00  0.000000E+00  0.000000E+00  0.000000E+00  1.677057E+00 -4.866646E-04 -1.404198E-06 -1.677057E+00                                                                                                                                                                                                                                                                                                                                                                                                                                                                                              
  9.350000E+02  1.250000E+02 -5.225000E+03  1.978492E-06 -7.909680E-10 -2.378723E-12 -1.978492E-06  1.114244E-08 -4.453245E-12 -1.339188E-14 -1.114244E-08  0.000000E+00  0.000000E+00  0.000000E+00  0.000000E+00  0.000000E+00  0.000000E+00  0.000000E+00  0.000000E+00  1.680662E+00 -7.316087E-04 -2.198575E-06 -1.680662E+00                                                                                                                                                                                                                                                                                                                                                                                                                                                                                              
  1.185000E+03  1.250000E+02 -5.225000E+03  1.980841E-06 -1.138825E-09 -5.273092E-12 -1.980841E-06  1.115856E-08 -6.413625E-12 -2.969520E-14 -1.115856E-08  0.000000E+00  0.000000E+00  0.000000E+00  0.000000E+00  0.000000E+00  0.000000E+00  0.000000E+00  0.000000E+00  1.685820E+00 -1.054917E-03 -4.879450E-06 -1.685820E+00                                                                                                                                                                                                                                                                                                                                                                                                                                                                                              
  1.435000E+03  1.250000E+02 -5.225000E+03  1.984794E-06 -6.328351E-10 -9.573127E-12 -1.984794E-06  1.118561E-08 -3.564583E-12 -5.393575E-14 -1.118560E-08  0.000000E+00  0.000000E+00  0.000000E+00  0.000000E+00  0.000000E+00  0.000000E+00  0.000000E+00  0.000000E+00  1.694487E+00 -5.867033E-04 -8.875456E-06 -1.694487E+00                                                                                                                                                                                                                                                                                                                                                                                                                                                                                              
  1.250000E+02  1.250000E+02 -4.975000E+03  2.009351E-06  4.199778E-10  2.958055E-12 -2.009351E-06  1.084283E-08  2.273752E-12  1.602069E-14 -1.084282E-08  0.000000E+00  0.000000E+00  0.000000E+00  0.000000E+00  0.000000E+00  0.000000E+00  0.000000E+00  0.000000E+00  1.353294E+00  3.271910E-04  2.304525E-06 -1.353294E+00                                                                                                                                                                                                                                                                                                                                                                                                                                                                                              
  3.750000E+02  1.250000E+02 -4.975000E+03  2.004810E-06  7.157301E-10  2.222415E-12 -2.004810E-06  1.081187E-08  3.873936E-12  1.202799E-14 -1.081187E-08  0.000000E+00  0.000000E+00  0.000000E+00  0.000000E+00  0.000000E+00  0.000000E+00  0.000000E+00  0.000000E+00  1.343982E+00  5.566891E-04  1.724551E-06 -1.343982E+00                                                                                                                                                                                                                                                                                                                                                                                                                                                                                              
  6.250000E+02  1.250000E+02 -4.975000E+03  2.001475E-06  2.336238E-10  1.372705E-12 -2.001475E-06  1.078877E-08  1.264118E-12  7.425078E-15 -1.078877E-08  0.000000E+00  0.000000E+00  0.000000E+00  0.000000E+00  0.000000E+00  0.000000E+00  0.000000E+00  0.000000E+00  1.336960E+00  1.814269E-04  1.061811E-06 -1.336960E+00                                                                                                                                                                                                                                                                                                                                                                                                                                                                                              
  7.600000E+02  1.250000E+02 -4.975000E+03  2.001509E-06 -1.677549E-10  1.155817E-12 -2.001509E-06  1.078940E-08 -9.074432E-13  6.252230E-15 -1.078940E-08  0.000000E+00  0.000000E+00  0.000000E+00  0.000000E+00  0.000000E+00  0.000000E+00  0.000000E+00  0.000000E+00  1.337377E+00 -1.298080E-04  8.943000E-07 -1.337377E+00                                                                                                                                                                                                                                                                                                                                                                                                                                                                                              
  7.800000E+02  1.250000E+02 -4.975000E+03  2.001612E-06 -2.549861E-10  1.126020E-12 -2.001612E-06  1.079015E-08 -1.379349E-12  6.091172E-15 -1.079015E-08  0.000000E+00  0.000000E+00  0.000000E+00  0.000000E+00  0.000000E+00  0.000000E+00  0.000000E+00  0.000000E+00  1.337617E+00 -1.973430E-04  8.713464E-07 -1.337617E+00                                                                                                                                                                                                                                                                                                                                                                                                                                                                                              
  8.000000E+02  1.250000E+02 -4.975000E+03  2.001877E-06 -3.391822E-10  1.097593E-12 -2.001877E-06  1.079196E-08 -1.835026E-12  5.937650E-15 -1.079196E-08  0.000000E+00  0.000000E+00  0.000000E+00  0.000000E+00  0.000000E+00  0.000000E+00  0.000000E+00  0.000000E+00  1.338144E+00 -2.628165E-04  8.495511E-07 -1.338144E+00                                                                                                                                                                                                                                                                                                                                                                                                                                                                                              
  9.350000E+02  1.250000E+02 -4.975000E+03  2.004153E-06 -4.613436E-10  9.153863E-13 -2.004153E-06  1.080735E-08 -2.496747E-12  4.953667E-15 -1.080735E-08  0.000000E+00  0.000000E+00  0.000000E+00  0.000000E+00  0.000000E+00  0.000000E+00  0.000000E+00  0.000000E+00  1.342575E+00 -3.583518E-04  7.098956E-07 -1.342575E+00                                                                                                                                                                                                                                                                                                                                                                                                                                                                                              
  1.185000E+03  1.250000E+02 -4.975000E+03  2.006432E-06 -7.820798E-10 -5.479555E-13 -2.006432E-06  1.082403E-08 -4.235056E-12 -2.966729E-15 -1.082403E-08  0.000000E+00  0.000000E+00  0.000000E+00  0.000000E+00  0.000000E+00  0.000000E+00  0.000000E+00  0.000000E+00  1.348205E+00 -6.100121E-04 -4.261124E-07 -1.348205E+00                                                                                                                                                                                                                                                                                                                                                                                                                                                                                              
  1.435000E+03  1.250000E+02 -4.975000E+03  2.011860E-06 -5.105588E-10 -4.245466E-12 -2.011860E-06  1.086092E-08 -2.765362E-12 -2.300487E-14 -1.086092E-08  0.000000E+00  0.000000E+00  0.000000E+00  0.000000E+00  0.000000E+00  0.000000E+00  0.000000E+00  0.000000E+00  1.359325E+00 -3.988706E-04 -3.316914E-06 -1.359325E+00                                                                                                                                                                                                                                                                                                                                                                                                                                                                                              
  1.250000E+02  1.250000E+02 -4.725000E+03  2.032770E-06 -1.405003E-09 -2.475778E-12 -2.032770E-06  1.053116E-08 -7.256161E-12 -1.278988E-14 -1.053116E-08  0.000000E+00  0.000000E+00  0.000000E+00  0.000000E+00  0.000000E+00  0.000000E+00  0.000000E+00  0.000000E+00  9.846686E-01 -7.956261E-04 -1.409916E-06 -9.846682E-01                                                                                                                                                                                                                                                                                                                                                                                                                                                                                              
  3.750000E+02  1.250000E+02 -4.725000E+03  2.029138E-06 -2.467093E-09 -3.235032E-13 -2.029136E-06  1.050715E-08 -1.273850E-11 -1.670225E-15 -1.050714E-08  0.000000E+00  0.000000E+00  0.000000E+00  0.000000E+00  0.000000E+00  0.000000E+00  0.000000E+00  0.000000E+00  9.795321E-01 -1.394571E-03 -1.831921E-07 -9.795311E-01                                                                                                                                                                                                                                                                                                                                                                                                                                                                                              
  6.250000E+02  1.250000E+02 -4.725000E+03  2.026499E-06 -6.201837E-10  3.594919E-12 -2.026499E-06  1.048958E-08 -3.201767E-12  1.855227E-14 -1.048958E-08  0.000000E+00  0.000000E+00  0.000000E+00  0.000000E+00  0.000000E+00  0.000000E+00  0.000000E+00  0.000000E+00  9.758050E-01 -3.497405E-04  2.027285E-06 -9.758049E-01                                                                                                                                                                                                                                                                                                                                                                                                                                                                                              
  7.600000E+02  1.250000E+02 -4.725000E+03  2.026675E-06  1.028735E-09  5.243675E-12 -2.026675E-06  1.049075E-08  5.309132E-12  2.706180E-14 -1.049075E-08  0.000000E+00  0.000000E+00  0.000000E+00  0.000000E+00  0.000000E+00  0.000000E+00  0.000000E+00  0.000000E+00  9.760201E-01  5.802265E-04  2.957883E-06 -9.760199E-01                                                                                                                                                                                                                                                                                                                                                                                                                                                                                              
  7.800000E+02  1.250000E+02 -4.725000E+03  2.026766E-06  1.317082E-09  5.489759E-12 -2.026765E-06  1.049135E-08  6.797394E-12  2.833222E-14 -1.049135E-08  0.000000E+00  0.000000E+00  0.000000E+00  0.000000E+00  0.000000E+00  0.000000E+00  0.000000E+00  0.000000E+00  9.761460E-01  7.430062E-04  3.097138E-06 -9.761457E-01                                                                                                                                                                                                                                                                                                                                                                                                                                                                                              
  8.000000E+02  1.250000E+02 -4.725000E+03  2.026953E-06  1.593050E-09  5.739326E-12 -2.026952E-06  1.049261E-08  8.222417E-12  2.962115E-14 -1.049261E-08  0.000000E+00  0.000000E+00  0.000000E+00  0.000000E+00  0.000000E+00  0.000000E+00  0.000000E+00  0.000000E+00  9.764181E-01  8.988921E-04  3.238912E-06 -9.764177E-01                                                                                                                                                                                                                                                                                                                                                                                                                                                                                              
  9.350000E+02  1.250000E+02 -4.725000E+03  2.028566E-06  2.150532E-09  7.410810E-12 -2.028565E-06  1.050341E-08  1.110271E-11  3.825803E-14 -1.050341E-08  0.000000E+00  0.000000E+00  0.000000E+00  0.000000E+00  0.000000E+00  0.000000E+00  0.000000E+00  0.000000E+00  9.787525E-01  1.215491E-03  4.192935E-06 -9.787517E-01                                                                                                                                                                                                                                                                                                                                                                                                                                                                                              
  1.185000E+03  1.250000E+02 -4.725000E+03  2.030887E-06  2.994596E-09  1.404285E-11 -2.030885E-06  1.051865E-08  1.546724E-11  7.252233E-14 -1.051864E-08  0.000000E+00  0.000000E+00  0.000000E+00  0.000000E+00  0.000000E+00  0.000000E+00  0.000000E+00  0.000000E+00  9.818505E-01  1.697661E-03  7.972898E-06 -9.818490E-01                                                                                                                                                                                                                                                                                                                                                                                                                                                                                              