Title="TOUGHREACT V3.30-OMP flowvector.tec: Liq & Gas Fluxes (kg/s/m^2), Pore Velocities (m/s), & Heat Fluxes (J/s/m2)"                                                                                                                                                                                                                                                                                                                                                                                                                                                                                                                                                                                                                                                                                                         
Variables= "X(m)"     "Y(m)"      "Z(m)"     "FluxLiq"   "FluxLiq_X"   "FluxLiq_Y"   "FluxLiq_Z"   "PorVelLiq"  "PorVelLiqX"  "PorVelLiqY"  "PorVelLiqZ"     "FluxGas"   "FluxGas_X"   "FluxGas_Y"   "FluxGas_Z"   "PorVelGas"  "PorVelGasX"  "PorVelGasY"  "PorVelGasZ"    "HeatFlux"  "HeatFlux_X"  "HeatFlux_Y"  "HeatFlux_Z"                                                                                                                                                                                                                                                                                                                                                                                                                                                                                                
Zone T= "6.66000000E+10 sec" I=     9 J=    10 K=    23 F=Point
  1.250000E+02  1.250000E+02 -5.425000E+03  1.013137E-06  0.000000E+00  0.000000E+00 -1.013137E-06  5.864525E-09  0.000000E+00  0.000000E+00 -5.864525E-09  0.000000E+00  0.000000E+00  0.000000E+00  0.000000E+00  0.000000E+00  0.000000E+00  0.000000E+00  0.000000E+00  9.814607E-01  0.000000E+00  0.000000E+00 -9.814607E-01                                                                                                                                                                                                                                                                                                                                                                                                                                                                                              
  3.750000E+02  1.250000E+02 -5.425000E+03  1.011885E-06  0.000000E+00  0.000000E+00 -1.011885E-06  5.856426E-09  0.000000E+00  0.000000E+00 -5.856426E-09  0.000000E+00  0.000000E+00  0.000000E+00  0.000000E+00  0.000000E+00  0.000000E+00  0.000000E+00  0.000000E+00  9.791507E-01  0.000000E+00  0.000000E+00 -9.791507E-01                                                                                                                                                                                                                                                                                                                                                                                                                                                                                              
  6.250000E+02  1.250000E+02 -5.425000E+03  1.010856E-06  0.000000E+00  0.000000E+00 -1.010856E-06  5.849689E-09  0.000000E+00  0.000000E+00 -5.849689E-09  0.000000E+00  0.000000E+00  0.000000E+00  0.000000E+00  0.000000E+00  0.000000E+00  0.000000E+00  0.000000E+00  9.771587E-01  0.000000E+00  0.000000E+00 -9.771587E-01                                                                                                                                                                                                                                                                                                                                                                                                                                                                                              
  7.600000E+02  1.250000E+02 -5.425000E+03  1.011027E-06  0.000000E+00  0.000000E+00 -1.011027E-06  5.850743E-09  0.000000E+00  0.000000E+00 -5.850743E-09  0.000000E+00  0.000000E+00  0.000000E+00  0.000000E+00  0.000000E+00  0.000000E+00  0.000000E+00  0.000000E+00  9.774072E-01  0.000000E+00  0.000000E+00 -9.774072E-01                                                                                                                                                                                                                                                                                                                                                                                                                                                                                              
  7.800000E+02  1.250000E+02 -5.425000E+03  1.011069E-06  0.000000E+00  0.000000E+00 -1.011069E-06  5.851018E-09  0.000000E+00  0.000000E+00 -5.851018E-09  0.000000E+00  0.000000E+00  0.000000E+00  0.000000E+00  0.000000E+00  0.000000E+00  0.000000E+00  0.000000E+00  9.774863E-01  0.000000E+00  0.000000E+00 -9.774863E-01                                                                                                                                                                                                                                                                                                                                                                                                                                                                                              
  8.000000E+02  1.250000E+02 -5.425000E+03  1.011135E-06  0.000000E+00  0.000000E+00 -1.011135E-06  5.851464E-09  0.000000E+00  0.000000E+00 -5.851464E-09  0.000000E+00  0.000000E+00  0.000000E+00  0.000000E+00  0.000000E+00  0.000000E+00  0.000000E+00  0.000000E+00  9.776315E-01  0.000000E+00  0.000000E+00 -9.776315E-01                                                                                                                                                                                                                                                                                                                                                                                                                                                                                              
  9.350000E+02  1.250000E+02 -5.425000E+03  1.011667E-06  0.000000E+00  0.000000E+00 -1.011667E-06  5.855060E-09  0.000000E+00  0.000000E+00 -5.855060E-09  0.000000E+00  0.000000E+00  0.000000E+00  0.000000E+00  0.000000E+00  0.000000E+00  0.000000E+00  0.000000E+00  9.788088E-01  0.000000E+00  0.000000E+00 -9.788088E-01                                                                                                                                                                                                                                                                                                                                                                                                                                                                                              
  1.185000E+03  1.250000E+02 -5.425000E+03  1.012812E-06  0.000000E+00  0.000000E+00 -1.012812E-06  5.862278E-09  0.000000E+00  0.000000E+00 -5.862278E-09  0.000000E+00  0.000000E+00  0.000000E+00  0.000000E+00  0.000000E+00  0.000000E+00  0.000000E+00  0.000000E+00  9.806811E-01  0.000000E+00  0.000000E+00 -9.806811E-01                                                                                                                                                                                                                                                                                                                                                                                                                                                                                              
  1.435000E+03  1.250000E+02 -5.425000E+03  1.014299E-06  0.000000E+00  0.000000E+00 -1.014299E-06  5.871833E-09  0.000000E+00  0.000000E+00 -5.871833E-09  0.000000E+00  0.000000E+00  0.000000E+00  0.000000E+00  0.000000E+00  0.000000E+00  0.000000E+00  0.000000E+00  9.833355E-01  0.000000E+00  0.000000E+00 -9.833355E-01                                                                                                                                                                                                                                                                                                                                                                                                                                                                                              
  1.250000E+02  1.250000E+02 -5.225000E+03  2.037040E-06  6.387321E-10  1.618608E-12 -2.037040E-06  1.158819E-08  3.638698E-12  9.222211E-15 -1.158818E-08  0.000000E+00  0.000000E+00  0.000000E+00  0.000000E+00  0.000000E+00  0.000000E+00  0.000000E+00  0.000000E+00  1.847565E+00  6.187619E-04  1.568001E-06 -1.847565E+00                                                                                                                                                                                                                                                                                                                                                                                                                                                                                              
  3.750000E+02  1.250000E+02 -5.225000E+03  2.033888E-06  1.131111E-09  4.531820E-13 -2.033888E-06  1.156648E-08  6.442864E-12  2.581294E-15 -1.156648E-08  0.000000E+00  0.000000E+00  0.000000E+00  0.000000E+00  0.000000E+00  0.000000E+00  0.000000E+00  0.000000E+00  1.840493E+00  1.095212E-03  4.385215E-07 -1.840492E+00                                                                                                                                                                                                                                                                                                                                                                                                                                                                                              
  6.250000E+02  1.250000E+02 -5.225000E+03  2.031380E-06  2.879046E-10 -1.720394E-12 -2.031380E-06  1.154897E-08  1.639797E-12 -9.796614E-15 -1.154897E-08  0.000000E+00  0.000000E+00  0.000000E+00  0.000000E+00  0.000000E+00  0.000000E+00  0.000000E+00  0.000000E+00  1.834669E+00  2.787754E-04 -1.663047E-06 -1.834669E+00                                                                                                                                                                                                                                                                                                                                                                                                                                                                                              
  7.600000E+02  1.250000E+02 -5.225000E+03  2.031673E-06 -4.676995E-10 -2.949916E-12 -2.031673E-06  1.155093E-08 -2.663321E-12 -1.679838E-14 -1.155093E-08  0.000000E+00  0.000000E+00  0.000000E+00  0.000000E+00  0.000000E+00  0.000000E+00  0.000000E+00  0.000000E+00  1.835253E+00 -4.521570E-04 -2.851827E-06 -1.835253E+00                                                                                                                                                                                                                                                                                                                                                                                                                                                                                              
  7.800000E+02  1.250000E+02 -5.225000E+03  2.031767E-06 -5.841238E-10 -3.133408E-12 -2.031767E-06  1.155158E-08 -3.326354E-12 -1.784346E-14 -1.155158E-08  0.000000E+00  0.000000E+00  0.000000E+00  0.000000E+00  0.000000E+00  0.000000E+00  0.000000E+00  0.000000E+00  1.835471E+00 -5.647477E-04 -3.029337E-06 -1.835471E+00                                                                                                                                                                                                                                                                                                                                                                                                                                                                                              
  8.000000E+02  1.250000E+02 -5.225000E+03  2.031937E-06 -6.958523E-10 -3.319210E-12 -2.031937E-06  1.155280E-08 -3.962843E-12 -1.890194E-14 -1.155280E-08  0.000000E+00  0.000000E+00  0.000000E+00  0.000000E+00  0.000000E+00  0.000000E+00  0.000000E+00  0.000000E+00  1.835899E+00 -6.730412E-04 -3.209236E-06 -1.835899E+00                                                                                                                                                                                                                                                                                                                                                                                                                                                                                              
  9.350000E+02  1.250000E+02 -5.225000E+03  2.033322E-06 -1.041984E-09 -4.586676E-12 -2.033322E-06  1.156276E-08 -5.935042E-12 -2.612449E-14 -1.156276E-08  0.000000E+00  0.000000E+00  0.000000E+00  0.000000E+00  0.000000E+00  0.000000E+00  0.000000E+00  0.000000E+00  1.839394E+00 -1.008645E-03 -4.437713E-06 -1.839394E+00                                                                                                                                                                                                                                                                                                                                                                                                                                                                                              
  1.185000E+03  1.250000E+02 -5.225000E+03  2.035680E-06 -1.459037E-09 -8.621272E-12 -2.035679E-06  1.157882E-08 -8.312307E-12 -4.911458E-14 -1.157882E-08  0.000000E+00  0.000000E+00  0.000000E+00  0.000000E+00  0.000000E+00  0.000000E+00  0.000000E+00  0.000000E+00  1.844478E+00 -1.413699E-03 -8.347805E-06 -1.844477E+00                                                                                                                                                                                                                                                                                                                                                                                                                                                                                              
  1.435000E+03  1.250000E+02 -5.225000E+03  2.039401E-06 -7.920076E-10 -1.410720E-11 -2.039401E-06  1.160429E-08 -4.512707E-12 -8.039381E-14 -1.160428E-08  0.000000E+00  0.000000E+00  0.000000E+00  0.000000E+00  0.000000E+00  0.000000E+00  0.000000E+00  0.000000E+00  1.852682E+00 -7.678301E-04 -1.367673E-05 -1.852682E+00                                                                                                                                                                                                                                                                                                                                                                                                                                                                                              
  1.250000E+02  1.250000E+02 -4.975000E+03  2.064966E-06  7.922534E-10  3.397196E-12 -2.064965E-06  1.129701E-08  4.357831E-12  1.869371E-14 -1.129701E-08  0.000000E+00  0.000000E+00  0.000000E+00  0.000000E+00  0.000000E+00  0.000000E+00  0.000000E+00  0.000000E+00  1.522153E+00  6.701552E-04  2.873637E-06 -1.522153E+00                                                                                                                                                                                                                                                                                                                                                                                                                                                                                              
  3.750000E+02  1.250000E+02 -4.975000E+03  2.060160E-06  1.361491E-09  1.852172E-12 -2.060160E-06  1.126330E-08  7.486812E-12  1.018424E-14 -1.126329E-08  0.000000E+00  0.000000E+00  0.000000E+00  0.000000E+00  0.000000E+00  0.000000E+00  0.000000E+00  0.000000E+00  1.510933E+00  1.149908E-03  1.561007E-06 -1.510932E+00                                                                                                                                                                                                                                                                                                                                                                                                                                                                                              
  6.250000E+02  1.250000E+02 -4.975000E+03  2.056662E-06  3.905554E-10 -3.162841E-13 -2.056662E-06  1.123822E-08  2.147069E-12 -1.738028E-15 -1.123822E-08  0.000000E+00  0.000000E+00  0.000000E+00  0.000000E+00  0.000000E+00  0.000000E+00  0.000000E+00  0.000000E+00  1.502453E+00  3.295713E-04 -2.657636E-07 -1.502453E+00                                                                                                                                                                                                                                                                                                                                                                                                                                                                                              
  7.600000E+02  1.250000E+02 -4.975000E+03  2.056663E-06 -4.368192E-10 -1.222620E-12 -2.056663E-06  1.123875E-08 -2.400506E-12 -6.718849E-15 -1.123875E-08  0.000000E+00  0.000000E+00  0.000000E+00  0.000000E+00  0.000000E+00  0.000000E+00  0.000000E+00  0.000000E+00  1.502951E+00 -3.671676E-04 -1.027610E-06 -1.502951E+00                                                                                                                                                                                                                                                                                                                                                                                                                                                                                              
  7.800000E+02  1.250000E+02 -4.975000E+03  2.056768E-06 -5.955640E-10 -1.357653E-12 -2.056768E-06  1.123955E-08 -3.272992E-12 -7.461092E-15 -1.123955E-08  0.000000E+00  0.000000E+00  0.000000E+00  0.000000E+00  0.000000E+00  0.000000E+00  0.000000E+00  0.000000E+00  1.503241E+00 -5.006877E-04 -1.141234E-06 -1.503241E+00                                                                                                                                                                                                                                                                                                                                                                                                                                                                                              
  8.000000E+02  1.250000E+02 -4.975000E+03  2.057049E-06 -7.484493E-10 -1.493263E-12 -2.057049E-06  1.124153E-08 -4.113726E-12 -8.206727E-15 -1.124153E-08  0.000000E+00  0.000000E+00  0.000000E+00  0.000000E+00  0.000000E+00  0.000000E+00  0.000000E+00  0.000000E+00  1.503877E+00 -6.299233E-04 -1.255513E-06 -1.503877E+00                                                                                                                                                                                                                                                                                                                                                                                                                                                                                              
  9.350000E+02  1.250000E+02 -4.975000E+03  2.059460E-06 -1.052251E-09 -2.392356E-12 -2.059460E-06  1.125837E-08 -5.785656E-12 -1.315303E-14 -1.125837E-08  0.000000E+00  0.000000E+00  0.000000E+00  0.000000E+00  0.000000E+00  0.000000E+00  0.000000E+00  0.000000E+00  1.509235E+00 -8.877307E-04 -2.015204E-06 -1.509235E+00                                                                                                                                                                                                                                                                                                                                                                                                                                                                                              
  1.185000E+03  1.250000E+02 -4.975000E+03  2.061765E-06 -1.628585E-09 -6.214408E-12 -2.061765E-06  1.127605E-08 -8.959886E-12 -3.418433E-14 -1.127604E-08  0.000000E+00  0.000000E+00  0.000000E+00  0.000000E+00  0.000000E+00  0.000000E+00  0.000000E+00  0.000000E+00  1.516014E+00 -1.378844E-03 -5.248071E-06 -1.516013E+00                                                                                                                                                                                                                                                                                                                                                                                                                                                                                              
  1.435000E+03  1.250000E+02 -4.975000E+03  2.067530E-06 -9.873560E-10 -1.345705E-11 -2.067529E-06  1.131629E-08 -5.433557E-12 -7.408980E-14 -1.131628E-08  0.000000E+00  0.000000E+00  0.000000E+00  0.000000E+00  0.000000E+00  0.000000E+00  0.000000E+00  0.000000E+00  1.529407E+00 -8.373351E-04 -1.141289E-05 -1.529407E+00                                                                                                                                                                                                                                                                                                                                                                                                                                                                                              
  1.250000E+02  1.250000E+02 -4.725000E+03  2.094998E-06 -1.791775E-09 -3.351140E-12 -2.094997E-06  1.096159E-08 -9.361523E-12 -1.751627E-14 -1.096159E-08  0.000000E+00  0.000000E+00  0.000000E+00  0.000000E+00  0.000000E+00  0.000000E+00  0.000000E+00  0.000000E+00  1.077680E+00 -1.121140E-03 -2.111755E-06 -1.077679E+00                                                                                                                                                                                                                                                                                                                                                                                                                                                                                              
  3.750000E+02  1.250000E+02 -4.725000E+03  2.091044E-06 -3.165755E-09 -8.485204E-13 -2.091042E-06  1.093371E-08 -1.653467E-11 -4.431264E-15 -1.093369E-08  0.000000E+00  0.000000E+00  0.000000E+00  0.000000E+00  0.000000E+00  0.000000E+00  0.000000E+00  0.000000E+00  1.070746E+00 -1.976372E-03 -5.309263E-07 -1.070744E+00                                                                                                                                                                                                                                                                                                                                                                                                                                                                                              
  6.250000E+02  1.250000E+02 -4.725000E+03  2.088269E-06 -8.059744E-10  4.118936E-12 -2.088269E-06  1.091378E-08 -4.208672E-12  2.149664E-14 -1.091378E-08  0.000000E+00  0.000000E+00  0.000000E+00  0.000000E+00  0.000000E+00  0.000000E+00  0.000000E+00  0.000000E+00  1.065796E+00 -5.016780E-04  2.563828E-06 -1.065796E+00                                                                                                                                                                                                                                                                                                                                                                                                                                                                                              
  7.600000E+02  1.250000E+02 -4.725000E+03  2.088425E-06  1.321486E-09  6.245349E-12 -2.088425E-06  1.091496E-08  6.897103E-12  3.259586E-14 -1.091496E-08  0.000000E+00  0.000000E+00  0.000000E+00  0.000000E+00  0.000000E+00  0.000000E+00  0.000000E+00  0.000000E+00  1.066069E+00  8.227313E-04  3.888848E-06 -1.066069E+00                                                                                                                                                                                                                                                                                                                                                                                                                                                                                              
  7.800000E+02  1.250000E+02 -4.725000E+03  2.088518E-06  1.690403E-09  6.562881E-12 -2.088518E-06  1.091563E-08  8.822854E-12  3.425390E-14 -1.091563E-08  0.000000E+00  0.000000E+00  0.000000E+00  0.000000E+00  0.000000E+00  0.000000E+00  0.000000E+00  0.000000E+00  1.066235E+00  1.052684E-03  4.087307E-06 -1.066235E+00                                                                                                                                                                                                                                                                                                                                                                                                                                                                                              
  8.000000E+02  1.250000E+02 -4.725000E+03  2.088717E-06  2.043433E-09  6.883739E-12 -2.088716E-06  1.091708E-08  1.066691E-11  3.593023E-14 -1.091707E-08  0.000000E+00  0.000000E+00  0.000000E+00  0.000000E+00  0.000000E+00  0.000000E+00  0.000000E+00  0.000000E+00  1.066598E+00  1.272893E-03  4.288752E-06 -1.066597E+00                                                                                                                                                                                                                                                                                                                                                                                                                                                                                              
  9.350000E+02  1.250000E+02 -4.725000E+03  2.090431E-06  2.771444E-09  9.034969E-12 -2.090429E-06  1.092943E-08  1.447281E-11  4.717729E-14 -1.092942E-08  0.000000E+00  0.000000E+00  0.000000E+00  0.000000E+00  0.000000E+00  0.000000E+00  0.000000E+00  0.000000E+00  1.069701E+00  1.730004E-03  5.647046E-06 -1.069700E+00                                                                                                                                                                                                                                                                                                                                                                                                                                                                                              
  1.185000E+03  1.250000E+02 -4.725000E+03  2.092779E-06  3.808810E-09  1.736594E-11 -2.092776E-06  1.094618E-08  1.990302E-11  9.072873E-14 -1.094616E-08  0.000000E+00  0.000000E+00  0.000000E+00  0.000000E+00  0.000000E+00  0.000000E+00  0.000000E+00  0.000000E+00  1.073771E+00  2.386538E-03  1.090229E-05 -1.073769E+00                                                                                                                                                                                                                                                                                                                                                                                                                                                                                              