Title="TOUGHREACT V3.30-OMP flowvector.tec: Liq & Gas Fluxes (kg/s/m^2), Pore Velocities (m/s), & Heat Fluxes (J/s/m2)"                                                                                                                                                                                                                                                                                                                                                                                                                                                                                                                                                                                                                                                                                                         
Variables= "X(m)"     "Y(m)"      "Z(m)"     "FluxLiq"   "FluxLiq_X"   "FluxLiq_Y"   "FluxLiq_Z"   "PorVelLiq"  "PorVelLiqX"  "PorVelLiqY"  "PorVelLiqZ"     "FluxGas"   "FluxGas_X"   "FluxGas_Y"   "FluxGas_Z"   "PorVelGas"  "PorVelGasX"  "PorVelGasY"  "PorVelGasZ"    "HeatFlux"  "HeatFlux_X"  "HeatFlux_Y"  "HeatFlux_Z"                                                                                                                                                                                                                                                                                                                                                                                                                                                                                                
Zone T= "4.33000000E+10 sec" I=     9 J=    10 K=    23 F=Point
  1.250000E+02  1.250000E+02 -5.425000E+03  1.040687E-06  0.000000E+00  0.000000E+00 -1.040687E-06  6.052743E-09  0.000000E+00  0.000000E+00 -6.052743E-09  0.000000E+00  0.000000E+00  0.000000E+00  0.000000E+00  0.000000E+00  0.000000E+00  0.000000E+00  0.000000E+00  1.044169E+00  0.000000E+00  0.000000E+00 -1.044169E+00                                                                                                                                                                                                                                                                                                                                                                                                                                                                                              
  3.750000E+02  1.250000E+02 -5.425000E+03  1.039580E-06  0.000000E+00  0.000000E+00 -1.039580E-06  6.045914E-09  0.000000E+00  0.000000E+00 -6.045914E-09  0.000000E+00  0.000000E+00  0.000000E+00  0.000000E+00  0.000000E+00  0.000000E+00  0.000000E+00  0.000000E+00  1.042563E+00  0.000000E+00  0.000000E+00 -1.042563E+00                                                                                                                                                                                                                                                                                                                                                                                                                                                                                              
  6.250000E+02  1.250000E+02 -5.425000E+03  1.038681E-06  0.000000E+00  0.000000E+00 -1.038681E-06  6.040273E-09  0.000000E+00  0.000000E+00 -6.040273E-09  0.000000E+00  0.000000E+00  0.000000E+00  0.000000E+00  0.000000E+00  0.000000E+00  0.000000E+00  0.000000E+00  1.041143E+00  0.000000E+00  0.000000E+00 -1.041143E+00                                                                                                                                                                                                                                                                                                                                                                                                                                                                                              
  7.600000E+02  1.250000E+02 -5.425000E+03  1.038869E-06  0.000000E+00  0.000000E+00 -1.038869E-06  6.041394E-09  0.000000E+00  0.000000E+00 -6.041394E-09  0.000000E+00  0.000000E+00  0.000000E+00  0.000000E+00  0.000000E+00  0.000000E+00  0.000000E+00  0.000000E+00  1.041369E+00  0.000000E+00  0.000000E+00 -1.041369E+00                                                                                                                                                                                                                                                                                                                                                                                                                                                                                              
  7.800000E+02  1.250000E+02 -5.425000E+03  1.038909E-06  0.000000E+00  0.000000E+00 -1.038909E-06  6.041644E-09  0.000000E+00  0.000000E+00 -6.041644E-09  0.000000E+00  0.000000E+00  0.000000E+00  0.000000E+00  0.000000E+00  0.000000E+00  0.000000E+00  0.000000E+00  1.041430E+00  0.000000E+00  0.000000E+00 -1.041430E+00                                                                                                                                                                                                                                                                                                                                                                                                                                                                                              
  8.000000E+02  1.250000E+02 -5.425000E+03  1.038965E-06  0.000000E+00  0.000000E+00 -1.038965E-06  6.042007E-09  0.000000E+00  0.000000E+00 -6.042007E-09  0.000000E+00  0.000000E+00  0.000000E+00  0.000000E+00  0.000000E+00  0.000000E+00  0.000000E+00  0.000000E+00  1.041532E+00  0.000000E+00  0.000000E+00 -1.041532E+00                                                                                                                                                                                                                                                                                                                                                                                                                                                                                              
  9.350000E+02  1.250000E+02 -5.425000E+03  1.039412E-06  0.000000E+00  0.000000E+00 -1.039412E-06  6.044910E-09  0.000000E+00  0.000000E+00 -6.044910E-09  0.000000E+00  0.000000E+00  0.000000E+00  0.000000E+00  0.000000E+00  0.000000E+00  0.000000E+00  0.000000E+00  1.042358E+00  0.000000E+00  0.000000E+00 -1.042358E+00                                                                                                                                                                                                                                                                                                                                                                                                                                                                                              
  1.185000E+03  1.250000E+02 -5.425000E+03  1.040585E-06  0.000000E+00  0.000000E+00 -1.040585E-06  6.051992E-09  0.000000E+00  0.000000E+00 -6.051992E-09  0.000000E+00  0.000000E+00  0.000000E+00  0.000000E+00  0.000000E+00  0.000000E+00  0.000000E+00  0.000000E+00  1.043872E+00  0.000000E+00  0.000000E+00 -1.043872E+00                                                                                                                                                                                                                                                                                                                                                                                                                                                                                              
  1.435000E+03  1.250000E+02 -5.425000E+03  1.041974E-06  0.000000E+00  0.000000E+00 -1.041974E-06  6.060470E-09  0.000000E+00  0.000000E+00 -6.060470E-09  0.000000E+00  0.000000E+00  0.000000E+00  0.000000E+00  0.000000E+00  0.000000E+00  0.000000E+00  0.000000E+00  1.045771E+00  0.000000E+00  0.000000E+00 -1.045771E+00                                                                                                                                                                                                                                                                                                                                                                                                                                                                                              
  1.250000E+02  1.250000E+02 -5.225000E+03  2.089933E-06  7.493057E-10  7.445291E-13 -2.089933E-06  1.199680E-08  4.310367E-12  4.283186E-15 -1.199680E-08  0.000000E+00  0.000000E+00  0.000000E+00  0.000000E+00  0.000000E+00  0.000000E+00  0.000000E+00  0.000000E+00  2.002660E+00  7.518130E-04  7.470205E-07 -2.002660E+00                                                                                                                                                                                                                                                                                                                                                                                                                                                                                              
  3.750000E+02  1.250000E+02 -5.225000E+03  2.086957E-06  1.323672E-09 -1.185121E-12 -2.086956E-06  1.197705E-08  7.613949E-12 -6.816949E-15 -1.197704E-08  0.000000E+00  0.000000E+00  0.000000E+00  0.000000E+00  0.000000E+00  0.000000E+00  0.000000E+00  0.000000E+00  1.996682E+00  1.327828E-03 -1.188520E-06 -1.996681E+00                                                                                                                                                                                                                                                                                                                                                                                                                                                                                              
  6.250000E+02  1.250000E+02 -5.225000E+03  2.084631E-06  3.132210E-10 -4.742214E-12 -2.084631E-06  1.196122E-08  1.801647E-12 -2.727393E-14 -1.196122E-08  0.000000E+00  0.000000E+00  0.000000E+00  0.000000E+00  0.000000E+00  0.000000E+00  0.000000E+00  0.000000E+00  1.991633E+00  3.142406E-04 -4.753457E-06 -1.991633E+00                                                                                                                                                                                                                                                                                                                                                                                                                                                                                              
  7.600000E+02  1.250000E+02 -5.225000E+03  2.084961E-06 -5.915201E-10 -6.921087E-12 -2.084961E-06  1.196332E-08 -3.402044E-12 -3.980568E-14 -1.196332E-08  0.000000E+00  0.000000E+00  0.000000E+00  0.000000E+00  0.000000E+00  0.000000E+00  0.000000E+00  0.000000E+00  1.992197E+00 -5.929500E-04 -6.937744E-06 -1.992197E+00                                                                                                                                                                                                                                                                                                                                                                                                                                                                                              
  7.800000E+02  1.250000E+02 -5.225000E+03  2.085051E-06 -7.287760E-10 -7.253828E-12 -2.085051E-06  1.196394E-08 -4.191487E-12 -4.171963E-14 -1.196394E-08  0.000000E+00  0.000000E+00  0.000000E+00  0.000000E+00  0.000000E+00  0.000000E+00  0.000000E+00  0.000000E+00  1.992392E+00 -7.305617E-04 -7.271431E-06 -1.992392E+00                                                                                                                                                                                                                                                                                                                                                                                                                                                                                              
  8.000000E+02  1.250000E+02 -5.225000E+03  2.085202E-06 -8.609381E-10 -7.594564E-12 -2.085202E-06  1.196500E-08 -4.951775E-12 -4.367988E-14 -1.196500E-08  0.000000E+00  0.000000E+00  0.000000E+00  0.000000E+00  0.000000E+00  0.000000E+00  0.000000E+00  0.000000E+00  1.992760E+00 -8.632333E-04 -7.613328E-06 -1.992760E+00                                                                                                                                                                                                                                                                                                                                                                                                                                                                                              
  9.350000E+02  1.250000E+02 -5.225000E+03  2.086424E-06 -1.312203E-09 -9.939611E-12 -2.086424E-06  1.197369E-08 -7.547936E-12 -5.717322E-14 -1.197368E-08  0.000000E+00  0.000000E+00  0.000000E+00  0.000000E+00  0.000000E+00  0.000000E+00  0.000000E+00  0.000000E+00  1.995780E+00 -1.316198E-03 -9.967787E-06 -1.995779E+00                                                                                                                                                                                                                                                                                                                                                                                                                                                                                              
  1.185000E+03  1.250000E+02 -5.225000E+03  2.088907E-06 -1.824991E-09 -1.654223E-11 -2.088906E-06  1.198983E-08 -1.049853E-11 -9.516039E-14 -1.198982E-08  0.000000E+00  0.000000E+00  0.000000E+00  0.000000E+00  0.000000E+00  0.000000E+00  0.000000E+00  0.000000E+00  2.000386E+00 -1.831229E-03 -1.659449E-05 -2.000385E+00                                                                                                                                                                                                                                                                                                                                                                                                                                                                                              
  1.435000E+03  1.250000E+02 -5.225000E+03  2.092591E-06 -9.753242E-10 -2.435400E-11 -2.092591E-06  1.201388E-08 -5.610987E-12 -1.401172E-13 -1.201388E-08  0.000000E+00  0.000000E+00  0.000000E+00  0.000000E+00  0.000000E+00  0.000000E+00  0.000000E+00  0.000000E+00  2.007379E+00 -9.788784E-04 -2.444285E-05 -2.007378E+00                                                                                                                                                                                                                                                                                                                                                                                                                                                                                              
  1.250000E+02  1.250000E+02 -4.975000E+03  2.116141E-06  1.363566E-09  4.359894E-12 -2.116141E-06  1.175701E-08  7.630399E-12  2.440591E-14 -1.175700E-08  0.000000E+00  0.000000E+00  0.000000E+00  0.000000E+00  0.000000E+00  0.000000E+00  0.000000E+00  0.000000E+00  1.722472E+00  1.245624E-03  3.982782E-06 -1.722472E+00                                                                                                                                                                                                                                                                                                                                                                                                                                                                                              
  3.750000E+02  1.250000E+02 -4.975000E+03  2.110823E-06  2.300589E-09  3.843743E-13 -2.110822E-06  1.171948E-08  1.287065E-11  2.150235E-15 -1.171948E-08  0.000000E+00  0.000000E+00  0.000000E+00  0.000000E+00  0.000000E+00  0.000000E+00  0.000000E+00  0.000000E+00  1.709024E+00  2.099214E-03  3.501499E-07 -1.709023E+00                                                                                                                                                                                                                                                                                                                                                                                                                                                                                              
  6.250000E+02  1.250000E+02 -4.975000E+03  2.107254E-06  6.091280E-10 -4.999928E-12 -2.107254E-06  1.169310E-08  3.406987E-12 -2.795401E-14 -1.169310E-08  0.000000E+00  0.000000E+00  0.000000E+00  0.000000E+00  0.000000E+00  0.000000E+00  0.000000E+00  0.000000E+00  1.699005E+00  5.555564E-04 -4.543618E-06 -1.699005E+00                                                                                                                                                                                                                                                                                                                                                                                                                                                                                              
  7.600000E+02  1.250000E+02 -4.975000E+03  2.107207E-06 -7.822840E-10 -7.896521E-12 -2.107206E-06  1.169343E-08 -4.373860E-12 -4.415081E-14 -1.169343E-08  0.000000E+00  0.000000E+00  0.000000E+00  0.000000E+00  0.000000E+00  0.000000E+00  0.000000E+00  0.000000E+00  1.699577E+00 -7.110825E-04 -7.177452E-06 -1.699576E+00                                                                                                                                                                                                                                                                                                                                                                                                                                                                                              
  7.800000E+02  1.250000E+02 -4.975000E+03  2.107308E-06 -1.034898E-09 -8.337768E-12 -2.107307E-06  1.169423E-08 -5.786459E-12 -4.661893E-14 -1.169423E-08  0.000000E+00  0.000000E+00  0.000000E+00  0.000000E+00  0.000000E+00  0.000000E+00  0.000000E+00  0.000000E+00  1.699915E+00 -9.408412E-04 -7.579224E-06 -1.699915E+00                                                                                                                                                                                                                                                                                                                                                                                                                                                                                              
  8.000000E+02  1.250000E+02 -4.975000E+03  2.107589E-06 -1.279008E-09 -8.789066E-12 -2.107589E-06  1.169628E-08 -7.152256E-12 -4.914448E-14 -1.169628E-08  0.000000E+00  0.000000E+00  0.000000E+00  0.000000E+00  0.000000E+00  0.000000E+00  0.000000E+00  0.000000E+00  1.700662E+00 -1.163855E-03 -7.990990E-06 -1.700661E+00                                                                                                                                                                                                                                                                                                                                                                                                                                                                                              
  9.350000E+02  1.250000E+02 -4.975000E+03  2.110013E-06 -1.932687E-09 -1.189099E-11 -2.110012E-06  1.171383E-08 -1.081153E-11 -6.651364E-14 -1.171382E-08  0.000000E+00  0.000000E+00  0.000000E+00  0.000000E+00  0.000000E+00  0.000000E+00  0.000000E+00  0.000000E+00  1.706965E+00 -1.762164E-03 -1.082814E-05 -1.706964E+00                                                                                                                                                                                                                                                                                                                                                                                                                                                                                              
  1.185000E+03  1.250000E+02 -4.975000E+03  2.112418E-06 -3.072327E-09 -2.225770E-11 -2.112416E-06  1.173270E-08 -1.719552E-11 -1.245598E-13 -1.173269E-08  0.000000E+00  0.000000E+00  0.000000E+00  0.000000E+00  0.000000E+00  0.000000E+00  0.000000E+00  0.000000E+00  1.715045E+00 -2.808512E-03 -2.030872E-05 -1.715042E+00                                                                                                                                                                                                                                                                                                                                                                                                                                                                                              
  1.435000E+03  1.250000E+02 -4.975000E+03  2.119155E-06 -1.838139E-09 -3.838171E-11 -2.119154E-06  1.177937E-08 -1.029038E-11 -2.149542E-13 -1.177937E-08  0.000000E+00  0.000000E+00  0.000000E+00  0.000000E+00  0.000000E+00  0.000000E+00  0.000000E+00  0.000000E+00  1.731311E+00 -1.682410E-03 -3.513117E-05 -1.731310E+00                                                                                                                                                                                                                                                                                                                                                                                                                                                                                              
  1.250000E+02  1.250000E+02 -4.725000E+03  2.154699E-06 -1.610962E-09  4.873166E-13 -2.154699E-06  1.142487E-08 -8.567410E-12  2.593333E-15 -1.142486E-08  0.000000E+00  0.000000E+00  0.000000E+00  0.000000E+00  0.000000E+00  0.000000E+00  0.000000E+00  0.000000E+00  1.200127E+00 -1.143569E-03  3.489574E-07 -1.200126E+00                                                                                                                                                                                                                                                                                                                                                                                                                                                                                              
  3.750000E+02  1.250000E+02 -4.725000E+03  2.148888E-06 -3.198851E-09 -1.064862E-12 -2.148886E-06  1.138394E-08 -1.700220E-11 -5.659216E-15 -1.138393E-08  0.000000E+00  0.000000E+00  0.000000E+00  0.000000E+00  0.000000E+00  0.000000E+00  0.000000E+00  0.000000E+00  1.189084E+00 -2.263473E-03 -7.559004E-07 -1.189082E+00                                                                                                                                                                                                                                                                                                                                                                                                                                                                                              
  6.250000E+02  1.250000E+02 -4.725000E+03  2.146455E-06 -8.830699E-10  3.221942E-12 -2.146455E-06  1.136347E-08 -4.692588E-12  1.710612E-14 -1.136347E-08  0.000000E+00  0.000000E+00  0.000000E+00  0.000000E+00  0.000000E+00  0.000000E+00  0.000000E+00  0.000000E+00  1.182576E+00 -6.228105E-04  2.272367E-06 -1.182576E+00                                                                                                                                                                                                                                                                                                                                                                                                                                                                                              
  7.600000E+02  1.250000E+02 -4.725000E+03  2.146539E-06  1.626971E-09  4.847762E-12 -2.146539E-06  1.136443E-08  8.638600E-12  2.573997E-14 -1.136443E-08  0.000000E+00  0.000000E+00  0.000000E+00  0.000000E+00  0.000000E+00  0.000000E+00  0.000000E+00  0.000000E+00  1.182919E+00  1.147787E-03  3.420699E-06 -1.182918E+00                                                                                                                                                                                                                                                                                                                                                                                                                                                                                              
  7.800000E+02  1.250000E+02 -4.725000E+03  2.146617E-06  2.058527E-09  5.083005E-12 -2.146616E-06  1.136511E-08  1.093058E-11  2.698996E-14 -1.136510E-08  0.000000E+00  0.000000E+00  0.000000E+00  0.000000E+00  0.000000E+00  0.000000E+00  0.000000E+00  0.000000E+00  1.183134E+00  1.452727E-03  3.587501E-06 -1.183133E+00                                                                                                                                                                                                                                                                                                                                                                                                                                                                                              
  8.000000E+02  1.250000E+02 -4.725000E+03  2.146798E-06  2.469081E-09  5.314171E-12 -2.146797E-06  1.136663E-08  1.311331E-11  2.821941E-14 -1.136662E-08  0.000000E+00  0.000000E+00  0.000000E+00  0.000000E+00  0.000000E+00  0.000000E+00  0.000000E+00  0.000000E+00  1.183612E+00  1.743073E-03  3.752395E-06 -1.183610E+00                                                                                                                                                                                                                                                                                                                                                                                                                                                                                              
  9.350000E+02  1.250000E+02 -4.725000E+03  2.148352E-06  3.125405E-09  6.806155E-12 -2.148350E-06  1.137958E-08  1.660862E-11  3.616377E-14 -1.137957E-08  0.000000E+00  0.000000E+00  0.000000E+00  0.000000E+00  0.000000E+00  0.000000E+00  0.000000E+00  0.000000E+00  1.187686E+00  2.211854E-03  4.824772E-06 -1.187684E+00                                                                                                                                                                                                                                                                                                                                                                                                                                                                                              
  1.185000E+03  1.250000E+02 -4.725000E+03  2.150164E-06  3.288321E-09  1.196334E-11 -2.150161E-06  1.139549E-08  1.748979E-11  6.362058E-14 -1.139547E-08  0.000000E+00  0.000000E+00  0.000000E+00  0.000000E+00  0.000000E+00  0.000000E+00  0.000000E+00  0.000000E+00  1.192963E+00  2.336954E-03  8.527944E-06 -1.192961E+00                                                                                                                                                                                                                                                                                                                                                                                                                                                                                              