Title="TOUGHREACT V3.30-OMP flowvector.tec: Liq & Gas Fluxes (kg/s/m^2), Pore Velocities (m/s), & Heat Fluxes (J/s/m2)"                                                                                                                                                                                                                                                                                                                                                                                                                                                                                                                                                                                                                                                                                                         
Variables= "X(m)"     "Y(m)"      "Z(m)"     "FluxLiq"   "FluxLiq_X"   "FluxLiq_Y"   "FluxLiq_Z"   "PorVelLiq"  "PorVelLiqX"  "PorVelLiqY"  "PorVelLiqZ"     "FluxGas"   "FluxGas_X"   "FluxGas_Y"   "FluxGas_Z"   "PorVelGas"  "PorVelGasX"  "PorVelGasY"  "PorVelGasZ"    "HeatFlux"  "HeatFlux_X"  "HeatFlux_Y"  "HeatFlux_Z"                                                                                                                                                                                                                                                                                                                                                                                                                                                                                                
Zone T= "4.67000000E+10 sec" I=     9 J=    10 K=    23 F=Point
  1.250000E+02  1.250000E+02 -5.425000E+03  1.036786E-06  0.000000E+00  0.000000E+00 -1.036786E-06  6.026342E-09  0.000000E+00  0.000000E+00 -6.026342E-09  0.000000E+00  0.000000E+00  0.000000E+00  0.000000E+00  0.000000E+00  0.000000E+00  0.000000E+00  0.000000E+00  1.035662E+00  0.000000E+00  0.000000E+00 -1.035662E+00                                                                                                                                                                                                                                                                                                                                                                                                                                                                                              
  3.750000E+02  1.250000E+02 -5.425000E+03  1.035669E-06  0.000000E+00  0.000000E+00 -1.035669E-06  6.019384E-09  0.000000E+00  0.000000E+00 -6.019384E-09  0.000000E+00  0.000000E+00  0.000000E+00  0.000000E+00  0.000000E+00  0.000000E+00  0.000000E+00  0.000000E+00  1.033958E+00  0.000000E+00  0.000000E+00 -1.033958E+00                                                                                                                                                                                                                                                                                                                                                                                                                                                                                              
  6.250000E+02  1.250000E+02 -5.425000E+03  1.034756E-06  0.000000E+00  0.000000E+00 -1.034756E-06  6.013603E-09  0.000000E+00  0.000000E+00 -6.013603E-09  0.000000E+00  0.000000E+00  0.000000E+00  0.000000E+00  0.000000E+00  0.000000E+00  0.000000E+00  0.000000E+00  1.032452E+00  0.000000E+00  0.000000E+00 -1.032452E+00                                                                                                                                                                                                                                                                                                                                                                                                                                                                                              
  7.600000E+02  1.250000E+02 -5.425000E+03  1.034940E-06  0.000000E+00  0.000000E+00 -1.034940E-06  6.014705E-09  0.000000E+00  0.000000E+00 -6.014705E-09  0.000000E+00  0.000000E+00  0.000000E+00  0.000000E+00  0.000000E+00  0.000000E+00  0.000000E+00  0.000000E+00  1.032680E+00  0.000000E+00  0.000000E+00 -1.032680E+00                                                                                                                                                                                                                                                                                                                                                                                                                                                                                              
  7.800000E+02  1.250000E+02 -5.425000E+03  1.034980E-06  0.000000E+00  0.000000E+00 -1.034980E-06  6.014957E-09  0.000000E+00  0.000000E+00 -6.014957E-09  0.000000E+00  0.000000E+00  0.000000E+00  0.000000E+00  0.000000E+00  0.000000E+00  0.000000E+00  0.000000E+00  1.032743E+00  0.000000E+00  0.000000E+00 -1.032743E+00                                                                                                                                                                                                                                                                                                                                                                                                                                                                                              
  8.000000E+02  1.250000E+02 -5.425000E+03  1.035037E-06  0.000000E+00  0.000000E+00 -1.035037E-06  6.015330E-09  0.000000E+00  0.000000E+00 -6.015330E-09  0.000000E+00  0.000000E+00  0.000000E+00  0.000000E+00  0.000000E+00  0.000000E+00  0.000000E+00  0.000000E+00  1.032852E+00  0.000000E+00  0.000000E+00 -1.032852E+00                                                                                                                                                                                                                                                                                                                                                                                                                                                                                              
  9.350000E+02  1.250000E+02 -5.425000E+03  1.035493E-06  0.000000E+00  0.000000E+00 -1.035493E-06  6.018321E-09  0.000000E+00  0.000000E+00 -6.018321E-09  0.000000E+00  0.000000E+00  0.000000E+00  0.000000E+00  0.000000E+00  0.000000E+00  0.000000E+00  0.000000E+00  1.033732E+00  0.000000E+00  0.000000E+00 -1.033732E+00                                                                                                                                                                                                                                                                                                                                                                                                                                                                                              
  1.185000E+03  1.250000E+02 -5.425000E+03  1.036643E-06  0.000000E+00  0.000000E+00 -1.036643E-06  6.025321E-09  0.000000E+00  0.000000E+00 -6.025321E-09  0.000000E+00  0.000000E+00  0.000000E+00  0.000000E+00  0.000000E+00  0.000000E+00  0.000000E+00  0.000000E+00  1.035284E+00  0.000000E+00  0.000000E+00 -1.035284E+00                                                                                                                                                                                                                                                                                                                                                                                                                                                                                              
  1.435000E+03  1.250000E+02 -5.425000E+03  1.038022E-06  0.000000E+00  0.000000E+00 -1.038022E-06  6.033817E-09  0.000000E+00  0.000000E+00 -6.033817E-09  0.000000E+00  0.000000E+00  0.000000E+00  0.000000E+00  0.000000E+00  0.000000E+00  0.000000E+00  0.000000E+00  1.037274E+00  0.000000E+00  0.000000E+00 -1.037274E+00                                                                                                                                                                                                                                                                                                                                                                                                                                                                                              
  1.250000E+02  1.250000E+02 -5.225000E+03  2.082498E-06  7.270694E-10  1.003554E-12 -2.082498E-06  1.193936E-08  4.177166E-12  5.766100E-15 -1.193936E-08  0.000000E+00  0.000000E+00  0.000000E+00  0.000000E+00  0.000000E+00  0.000000E+00  0.000000E+00  0.000000E+00  1.980915E+00  7.262815E-04  1.002466E-06 -1.980914E+00                                                                                                                                                                                                                                                                                                                                                                                                                                                                                              
  3.750000E+02  1.250000E+02 -5.225000E+03  2.079533E-06  1.287007E-09 -6.909576E-13 -2.079532E-06  1.191947E-08  7.393614E-12 -3.969392E-15 -1.191947E-08  0.000000E+00  0.000000E+00  0.000000E+00  0.000000E+00  0.000000E+00  0.000000E+00  0.000000E+00  0.000000E+00  1.974749E+00  1.285295E-03 -6.898152E-07 -1.974748E+00                                                                                                                                                                                                                                                                                                                                                                                                                                                                                              
  6.250000E+02  1.250000E+02 -5.225000E+03  2.077194E-06  3.095126E-10 -3.851091E-12 -2.077194E-06  1.190342E-08  1.778035E-12 -2.212007E-14 -1.190342E-08  0.000000E+00  0.000000E+00  0.000000E+00  0.000000E+00  0.000000E+00  0.000000E+00  0.000000E+00  0.000000E+00  1.969551E+00  3.091344E-04 -3.842517E-06 -1.969551E+00                                                                                                                                                                                                                                                                                                                                                                                                                                                                                              
  7.600000E+02  1.250000E+02 -5.225000E+03  2.077516E-06 -5.681722E-10 -5.759546E-12 -2.077516E-06  1.190550E-08 -3.263528E-12 -3.308233E-14 -1.190549E-08  0.000000E+00  0.000000E+00  0.000000E+00  0.000000E+00  0.000000E+00  0.000000E+00  0.000000E+00  0.000000E+00  1.970119E+00 -5.669387E-04 -5.746973E-06 -1.970119E+00                                                                                                                                                                                                                                                                                                                                                                                                                                                                                              
  7.800000E+02  1.250000E+02 -5.225000E+03  2.077606E-06 -7.015781E-10 -6.045968E-12 -2.077606E-06  1.190611E-08 -4.029838E-12 -3.472774E-14 -1.190611E-08  0.000000E+00  0.000000E+00  0.000000E+00  0.000000E+00  0.000000E+00  0.000000E+00  0.000000E+00  0.000000E+00  1.970319E+00 -7.000811E-04 -6.032907E-06 -1.970319E+00                                                                                                                                                                                                                                                                                                                                                                                                                                                                                              
  8.000000E+02  1.250000E+02 -5.225000E+03  2.077759E-06 -8.298400E-10 -6.339253E-12 -2.077759E-06  1.190720E-08 -4.766753E-12 -3.641286E-14 -1.190720E-08  0.000000E+00  0.000000E+00  0.000000E+00  0.000000E+00  0.000000E+00  0.000000E+00  0.000000E+00  0.000000E+00  1.970699E+00 -8.282712E-04 -6.325874E-06 -1.970699E+00                                                                                                                                                                                                                                                                                                                                                                                                                                                                                              
  9.350000E+02  1.250000E+02 -5.225000E+03  2.079001E-06 -1.255777E-09 -8.360688E-12 -2.079000E-06  1.191608E-08 -7.214142E-12 -4.802959E-14 -1.191608E-08  0.000000E+00  0.000000E+00  0.000000E+00  0.000000E+00  0.000000E+00  0.000000E+00  0.000000E+00  0.000000E+00  1.973813E+00 -1.253957E-03 -8.346475E-06 -1.973812E+00                                                                                                                                                                                                                                                                                                                                                                                                                                                                                              
  1.185000E+03  1.250000E+02 -5.225000E+03  2.081419E-06 -1.741893E-09 -1.417693E-11 -2.081419E-06  1.193199E-08 -1.000788E-11 -8.145093E-14 -1.193198E-08  0.000000E+00  0.000000E+00  0.000000E+00  0.000000E+00  0.000000E+00  0.000000E+00  0.000000E+00  0.000000E+00  1.978487E+00 -1.740161E-03 -1.415837E-05 -1.978486E+00                                                                                                                                                                                                                                                                                                                                                                                                                                                                                              
  1.435000E+03  1.250000E+02 -5.225000E+03  2.085034E-06 -9.321249E-10 -2.134069E-11 -2.085034E-06  1.195589E-08 -5.355773E-12 -1.226292E-13 -1.195589E-08  0.000000E+00  0.000000E+00  0.000000E+00  0.000000E+00  0.000000E+00  0.000000E+00  0.000000E+00  0.000000E+00  1.985658E+00 -9.314537E-04 -2.132543E-05 -1.985658E+00                                                                                                                                                                                                                                                                                                                                                                                                                                                                                              
  1.250000E+02  1.250000E+02 -4.975000E+03  2.109164E-06  1.236122E-09  4.158164E-12 -2.109164E-06  1.169085E-08  6.899904E-12  2.321869E-14 -1.169085E-08  0.000000E+00  0.000000E+00  0.000000E+00  0.000000E+00  0.000000E+00  0.000000E+00  0.000000E+00  0.000000E+00  1.691309E+00  1.117369E-03  3.758694E-06 -1.691309E+00                                                                                                                                                                                                                                                                                                                                                                                                                                                                                              
  3.750000E+02  1.250000E+02 -4.975000E+03  2.104030E-06  2.099090E-09  8.858416E-13 -2.104029E-06  1.165444E-08  1.171382E-11  4.943022E-15 -1.165444E-08  0.000000E+00  0.000000E+00  0.000000E+00  0.000000E+00  0.000000E+00  0.000000E+00  0.000000E+00  0.000000E+00  1.678263E+00  1.895126E-03  7.983718E-07 -1.678262E+00                                                                                                                                                                                                                                                                                                                                                                                                                                                                                              
  6.250000E+02  1.250000E+02 -4.975000E+03  2.100485E-06  5.637854E-10 -3.567353E-12 -2.100485E-06  1.162830E-08  3.145415E-12 -1.989411E-14 -1.162830E-08  0.000000E+00  0.000000E+00  0.000000E+00  0.000000E+00  0.000000E+00  0.000000E+00  0.000000E+00  0.000000E+00  1.668481E+00  5.087447E-04 -3.206882E-06 -1.668481E+00                                                                                                                                                                                                                                                                                                                                                                                                                                                                                              
  7.600000E+02  1.250000E+02 -4.975000E+03  2.100446E-06 -7.156397E-10 -5.895475E-12 -2.100445E-06  1.162866E-08 -3.991108E-12 -3.287914E-14 -1.162866E-08  0.000000E+00  0.000000E+00  0.000000E+00  0.000000E+00  0.000000E+00  0.000000E+00  0.000000E+00  0.000000E+00  1.669043E+00 -6.435086E-04 -5.300987E-06 -1.669043E+00                                                                                                                                                                                                                                                                                                                                                                                                                                                                                              
  7.800000E+02  1.250000E+02 -4.975000E+03  2.100548E-06 -9.497837E-10 -6.247321E-12 -2.100547E-06  1.162947E-08 -5.297111E-12 -3.484217E-14 -1.162947E-08  0.000000E+00  0.000000E+00  0.000000E+00  0.000000E+00  0.000000E+00  0.000000E+00  0.000000E+00  0.000000E+00  1.669374E+00 -8.541823E-04 -5.617900E-06 -1.669374E+00                                                                                                                                                                                                                                                                                                                                                                                                                                                                                              
  8.000000E+02  1.250000E+02 -4.975000E+03  2.100830E-06 -1.175727E-09 -6.607988E-12 -2.100829E-06  1.163152E-08 -6.558075E-12 -3.685536E-14 -1.163152E-08  0.000000E+00  0.000000E+00  0.000000E+00  0.000000E+00  0.000000E+00  0.000000E+00  0.000000E+00  0.000000E+00  1.670105E+00 -1.058415E-03 -5.943412E-06 -1.670105E+00                                                                                                                                                                                                                                                                                                                                                                                                                                                                                              
  9.350000E+02  1.250000E+02 -4.975000E+03  2.103259E-06 -1.740846E-09 -9.069502E-12 -2.103259E-06  1.164901E-08 -9.713794E-12 -5.060330E-14 -1.164901E-08  0.000000E+00  0.000000E+00  0.000000E+00  0.000000E+00  0.000000E+00  0.000000E+00  0.000000E+00  0.000000E+00  1.676274E+00 -1.570382E-03 -8.170632E-06 -1.676274E+00                                                                                                                                                                                                                                                                                                                                                                                                                                                                                              
  1.185000E+03  1.250000E+02 -4.975000E+03  2.105601E-06 -2.731035E-09 -1.755071E-11 -2.105599E-06  1.166747E-08 -1.524714E-11 -9.797208E-14 -1.166746E-08  0.000000E+00  0.000000E+00  0.000000E+00  0.000000E+00  0.000000E+00  0.000000E+00  0.000000E+00  0.000000E+00  1.684127E+00 -2.470453E-03 -1.584464E-05 -1.684125E+00                                                                                                                                                                                                                                                                                                                                                                                                                                                                                              
  1.435000E+03  1.250000E+02 -4.975000E+03  2.111995E-06 -1.632590E-09 -3.120846E-11 -2.111994E-06  1.171214E-08 -9.116918E-12 -1.743492E-13 -1.171214E-08  0.000000E+00  0.000000E+00  0.000000E+00  0.000000E+00  0.000000E+00  0.000000E+00  0.000000E+00  0.000000E+00  1.699829E+00 -1.478800E-03 -2.826965E-05 -1.699829E+00                                                                                                                                                                                                                                                                                                                                                                                                                                                                                              
  1.250000E+02  1.250000E+02 -4.725000E+03  2.146227E-06 -1.790608E-09 -1.085214E-12 -2.146226E-06  1.135492E-08 -9.493207E-12 -5.756969E-15 -1.135491E-08  0.000000E+00  0.000000E+00  0.000000E+00  0.000000E+00  0.000000E+00  0.000000E+00  0.000000E+00  0.000000E+00  1.179835E+00 -1.245582E-03 -7.613061E-07 -1.179834E+00                                                                                                                                                                                                                                                                                                                                                                                                                                                                                              
  3.750000E+02  1.250000E+02 -4.725000E+03  2.141124E-06 -3.385798E-09 -1.051313E-12 -2.141122E-06  1.131832E-08 -1.794106E-11 -5.570081E-15 -1.131830E-08  0.000000E+00  0.000000E+00  0.000000E+00  0.000000E+00  0.000000E+00  0.000000E+00  0.000000E+00  0.000000E+00  1.169858E+00 -2.348267E-03 -7.313051E-07 -1.169855E+00                                                                                                                                                                                                                                                                                                                                                                                                                                                                                              
  6.250000E+02  1.250000E+02 -4.725000E+03  2.138583E-06 -9.067336E-10  3.816415E-12 -2.138583E-06  1.129767E-08 -4.803515E-12  2.020146E-14 -1.129767E-08  0.000000E+00  0.000000E+00  0.000000E+00  0.000000E+00  0.000000E+00  0.000000E+00  0.000000E+00  0.000000E+00  1.163596E+00 -6.267852E-04  2.638121E-06 -1.163596E+00                                                                                                                                                                                                                                                                                                                                                                                                                                                                                              
  7.600000E+02  1.250000E+02 -4.725000E+03  2.138685E-06  1.593282E-09  5.798903E-12 -2.138684E-06  1.129870E-08  8.434269E-12  3.069754E-14 -1.129870E-08  0.000000E+00  0.000000E+00  0.000000E+00  0.000000E+00  0.000000E+00  0.000000E+00  0.000000E+00  0.000000E+00  1.163930E+00  1.101660E-03  4.010415E-06 -1.163929E+00                                                                                                                                                                                                                                                                                                                                                                                                                                                                                              
  7.800000E+02  1.250000E+02 -4.725000E+03  2.138767E-06  2.023151E-09  6.090082E-12 -2.138766E-06  1.129939E-08  1.071038E-11  3.223999E-14 -1.129938E-08  0.000000E+00  0.000000E+00  0.000000E+00  0.000000E+00  0.000000E+00  0.000000E+00  0.000000E+00  0.000000E+00  1.164138E+00  1.399343E-03  4.212709E-06 -1.164137E+00                                                                                                                                                                                                                                                                                                                                                                                                                                                                                              
  8.000000E+02  1.250000E+02 -4.725000E+03  2.138954E-06  2.433007E-09  6.379012E-12 -2.138953E-06  1.130091E-08  1.288264E-11  3.377178E-14 -1.130090E-08  0.000000E+00  0.000000E+00  0.000000E+00  0.000000E+00  0.000000E+00  0.000000E+00  0.000000E+00  0.000000E+00  1.164597E+00  1.683401E-03  4.414561E-06 -1.164596E+00                                                                                                                                                                                                                                                                                                                                                                                                                                                                                              
  9.350000E+02  1.250000E+02 -4.725000E+03  2.140561E-06  3.167390E-09  8.257931E-12 -2.140559E-06  1.131390E-08  1.678034E-11  4.374368E-14 -1.131389E-08  0.000000E+00  0.000000E+00  0.000000E+00  0.000000E+00  0.000000E+00  0.000000E+00  0.000000E+00  0.000000E+00  1.168519E+00  2.196868E-03  5.736664E-06 -1.168517E+00                                                                                                                                                                                                                                                                                                                                                                                                                                                                                              
  1.185000E+03  1.250000E+02 -4.725000E+03  2.142531E-06  3.709803E-09  1.511488E-11 -2.142528E-06  1.133030E-08  1.967115E-11  8.013060E-14 -1.133028E-08  0.000000E+00  0.000000E+00  0.000000E+00  0.000000E+00  0.000000E+00  0.000000E+00  0.000000E+00  0.000000E+00  1.173610E+00  2.584121E-03  1.055686E-05 -1.173608E+00                                                                                                                                                                                                                                                                                                                                                                                                                                                                                              