Title="TOUGHREACT V3.30-OMP flowvector.tec: Liq & Gas Fluxes (kg/s/m^2), Pore Velocities (m/s), & Heat Fluxes (J/s/m2)"                                                                                                                                                                                                                                                                                                                                                                                                                                                                                                                                                                                                                                                                                                         
Variables= "X(m)"     "Y(m)"      "Z(m)"     "FluxLiq"   "FluxLiq_X"   "FluxLiq_Y"   "FluxLiq_Z"   "PorVelLiq"  "PorVelLiqX"  "PorVelLiqY"  "PorVelLiqZ"     "FluxGas"   "FluxGas_X"   "FluxGas_Y"   "FluxGas_Z"   "PorVelGas"  "PorVelGasX"  "PorVelGasY"  "PorVelGasZ"    "HeatFlux"  "HeatFlux_X"  "HeatFlux_Y"  "HeatFlux_Z"                                                                                                                                                                                                                                                                                                                                                                                                                                                                                                
Zone T= "6.33000000E+10 sec" I=     9 J=    10 K=    23 F=Point
  1.250000E+02  1.250000E+02 -5.425000E+03  1.017105E-06  0.000000E+00  0.000000E+00 -1.017105E-06  5.891878E-09  0.000000E+00  0.000000E+00 -5.891878E-09  0.000000E+00  0.000000E+00  0.000000E+00  0.000000E+00  0.000000E+00  0.000000E+00  0.000000E+00  0.000000E+00  9.908648E-01  0.000000E+00  0.000000E+00 -9.908648E-01                                                                                                                                                                                                                                                                                                                                                                                                                                                                                              
  3.750000E+02  1.250000E+02 -5.425000E+03  1.015878E-06  0.000000E+00  0.000000E+00 -1.015878E-06  5.883971E-09  0.000000E+00  0.000000E+00 -5.883971E-09  0.000000E+00  0.000000E+00  0.000000E+00  0.000000E+00  0.000000E+00  0.000000E+00  0.000000E+00  0.000000E+00  9.886487E-01  0.000000E+00  0.000000E+00 -9.886487E-01                                                                                                                                                                                                                                                                                                                                                                                                                                                                                              
  6.250000E+02  1.250000E+02 -5.425000E+03  1.014868E-06  0.000000E+00  0.000000E+00 -1.014868E-06  5.877385E-09  0.000000E+00  0.000000E+00 -5.877385E-09  0.000000E+00  0.000000E+00  0.000000E+00  0.000000E+00  0.000000E+00  0.000000E+00  0.000000E+00  0.000000E+00  9.867288E-01  0.000000E+00  0.000000E+00 -9.867288E-01                                                                                                                                                                                                                                                                                                                                                                                                                                                                                              
  7.600000E+02  1.250000E+02 -5.425000E+03  1.015041E-06  0.000000E+00  0.000000E+00 -1.015041E-06  5.878446E-09  0.000000E+00  0.000000E+00 -5.878446E-09  0.000000E+00  0.000000E+00  0.000000E+00  0.000000E+00  0.000000E+00  0.000000E+00  0.000000E+00  0.000000E+00  9.869743E-01  0.000000E+00  0.000000E+00 -9.869743E-01                                                                                                                                                                                                                                                                                                                                                                                                                                                                                              
  7.800000E+02  1.250000E+02 -5.425000E+03  1.015083E-06  0.000000E+00  0.000000E+00 -1.015083E-06  5.878717E-09  0.000000E+00  0.000000E+00 -5.878717E-09  0.000000E+00  0.000000E+00  0.000000E+00  0.000000E+00  0.000000E+00  0.000000E+00  0.000000E+00  0.000000E+00  9.870510E-01  0.000000E+00  0.000000E+00 -9.870510E-01                                                                                                                                                                                                                                                                                                                                                                                                                                                                                              
  8.000000E+02  1.250000E+02 -5.425000E+03  1.015148E-06  0.000000E+00  0.000000E+00 -1.015148E-06  5.879151E-09  0.000000E+00  0.000000E+00 -5.879151E-09  0.000000E+00  0.000000E+00  0.000000E+00  0.000000E+00  0.000000E+00  0.000000E+00  0.000000E+00  0.000000E+00  9.871908E-01  0.000000E+00  0.000000E+00 -9.871908E-01                                                                                                                                                                                                                                                                                                                                                                                                                                                                                              
  9.350000E+02  1.250000E+02 -5.425000E+03  1.015666E-06  0.000000E+00  0.000000E+00 -1.015666E-06  5.882649E-09  0.000000E+00  0.000000E+00 -5.882649E-09  0.000000E+00  0.000000E+00  0.000000E+00  0.000000E+00  0.000000E+00  0.000000E+00  0.000000E+00  0.000000E+00  9.883240E-01  0.000000E+00  0.000000E+00 -9.883240E-01                                                                                                                                                                                                                                                                                                                                                                                                                                                                                              
  1.185000E+03  1.250000E+02 -5.425000E+03  1.016807E-06  0.000000E+00  0.000000E+00 -1.016807E-06  5.889811E-09  0.000000E+00  0.000000E+00 -5.889811E-09  0.000000E+00  0.000000E+00  0.000000E+00  0.000000E+00  0.000000E+00  0.000000E+00  0.000000E+00  0.000000E+00  9.901451E-01  0.000000E+00  0.000000E+00 -9.901451E-01                                                                                                                                                                                                                                                                                                                                                                                                                                                                                              
  1.435000E+03  1.250000E+02 -5.425000E+03  1.018270E-06  0.000000E+00  0.000000E+00 -1.018270E-06  5.899161E-09  0.000000E+00  0.000000E+00 -5.899161E-09  0.000000E+00  0.000000E+00  0.000000E+00  0.000000E+00  0.000000E+00  0.000000E+00  0.000000E+00  0.000000E+00  9.926913E-01  0.000000E+00  0.000000E+00 -9.926913E-01                                                                                                                                                                                                                                                                                                                                                                                                                                                                                              
  1.250000E+02  1.250000E+02 -5.225000E+03  2.044724E-06  6.532923E-10  1.527488E-12 -2.044723E-06  1.164746E-08  3.727286E-12  8.716151E-15 -1.164746E-08  0.000000E+00  0.000000E+00  0.000000E+00  0.000000E+00  0.000000E+00  0.000000E+00  0.000000E+00  0.000000E+00  1.870076E+00  6.364378E-04  1.488080E-06 -1.870076E+00                                                                                                                                                                                                                                                                                                                                                                                                                                                                                              
  3.750000E+02  1.250000E+02 -5.225000E+03  2.041610E-06  1.157478E-09  3.147470E-13 -2.041609E-06  1.162605E-08  6.603101E-12  1.795514E-15 -1.162605E-08  0.000000E+00  0.000000E+00  0.000000E+00  0.000000E+00  0.000000E+00  0.000000E+00  0.000000E+00  0.000000E+00  1.863115E+00  1.127109E-03  3.063105E-07 -1.863115E+00                                                                                                                                                                                                                                                                                                                                                                                                                                                                                              
  6.250000E+02  1.250000E+02 -5.225000E+03  2.039130E-06  2.924498E-10 -1.954578E-12 -2.039130E-06  1.160875E-08  1.668236E-12 -1.114731E-14 -1.160875E-08  0.000000E+00  0.000000E+00  0.000000E+00  0.000000E+00  0.000000E+00  0.000000E+00  0.000000E+00  0.000000E+00  1.857361E+00  2.847903E-04 -1.900385E-06 -1.857361E+00                                                                                                                                                                                                                                                                                                                                                                                                                                                                                              
  7.600000E+02  1.250000E+02 -5.225000E+03  2.039428E-06 -4.836449E-10 -3.228635E-12 -2.039428E-06  1.161073E-08 -2.758365E-12 -1.841387E-14 -1.161073E-08  0.000000E+00  0.000000E+00  0.000000E+00  0.000000E+00  0.000000E+00  0.000000E+00  0.000000E+00  0.000000E+00  1.857945E+00 -4.702813E-04 -3.139365E-06 -1.857945E+00                                                                                                                                                                                                                                                                                                                                                                                                                                                                                              
  7.800000E+02  1.250000E+02 -5.225000E+03  2.039521E-06 -6.028877E-10 -3.421370E-12 -2.039521E-06  1.161138E-08 -3.438493E-12 -1.951329E-14 -1.161138E-08  0.000000E+00  0.000000E+00  0.000000E+00  0.000000E+00  0.000000E+00  0.000000E+00  0.000000E+00  0.000000E+00  1.858161E+00 -5.862638E-04 -3.326893E-06 -1.858161E+00                                                                                                                                                                                                                                                                                                                                                                                                                                                                                              
  8.000000E+02  1.250000E+02 -5.225000E+03  2.039688E-06 -7.173305E-10 -3.617975E-12 -2.039688E-06  1.161258E-08 -4.091437E-12 -2.063502E-14 -1.161258E-08  0.000000E+00  0.000000E+00  0.000000E+00  0.000000E+00  0.000000E+00  0.000000E+00  0.000000E+00  0.000000E+00  1.858584E+00 -6.978148E-04 -3.518344E-06 -1.858584E+00                                                                                                                                                                                                                                                                                                                                                                                                                                                                                              
  9.350000E+02  1.250000E+02 -5.225000E+03  2.041050E-06 -1.074341E-09 -4.962146E-12 -2.041050E-06  1.162238E-08 -6.128686E-12 -2.830629E-14 -1.162238E-08  0.000000E+00  0.000000E+00  0.000000E+00  0.000000E+00  0.000000E+00  0.000000E+00  0.000000E+00  0.000000E+00  1.862036E+00 -1.045900E-03 -4.828572E-06 -1.862036E+00                                                                                                                                                                                                                                                                                                                                                                                                                                                                                              
  1.185000E+03  1.250000E+02 -5.225000E+03  2.043405E-06 -1.499975E-09 -9.176094E-12 -2.043405E-06  1.163838E-08 -8.558449E-12 -5.235456E-14 -1.163838E-08  0.000000E+00  0.000000E+00  0.000000E+00  0.000000E+00  0.000000E+00  0.000000E+00  0.000000E+00  0.000000E+00  1.867071E+00 -1.461538E-03 -8.935519E-06 -1.867071E+00                                                                                                                                                                                                                                                                                                                                                                                                                                                                                              
  1.435000E+03  1.250000E+02 -5.225000E+03  2.047089E-06 -8.119860E-10 -1.481950E-11 -2.047089E-06  1.166352E-08 -4.633493E-12 -8.457889E-14 -1.166352E-08  0.000000E+00  0.000000E+00  0.000000E+00  0.000000E+00  0.000000E+00  0.000000E+00  0.000000E+00  0.000000E+00  1.875140E+00 -7.915893E-04 -1.444741E-05 -1.875139E+00                                                                                                                                                                                                                                                                                                                                                                                                                                                                                              
  1.250000E+02  1.250000E+02 -4.975000E+03  2.072603E-06  8.510710E-10  3.470604E-12 -2.072603E-06  1.136250E-08  4.692571E-12  1.914337E-14 -1.136250E-08  0.000000E+00  0.000000E+00  0.000000E+00  0.000000E+00  0.000000E+00  0.000000E+00  0.000000E+00  0.000000E+00  1.548588E+00  7.281608E-04  2.969385E-06 -1.548588E+00                                                                                                                                                                                                                                                                                                                                                                                                                                                                                              
  3.750000E+02  1.250000E+02 -4.975000E+03  2.067769E-06  1.462325E-09  1.746843E-12 -2.067769E-06  1.132846E-08  8.060551E-12  9.628096E-15 -1.132846E-08  0.000000E+00  0.000000E+00  0.000000E+00  0.000000E+00  0.000000E+00  0.000000E+00  0.000000E+00  0.000000E+00  1.537086E+00  1.249273E-03  1.489236E-06 -1.537085E+00                                                                                                                                                                                                                                                                                                                                                                                                                                                                                              
  6.250000E+02  1.250000E+02 -4.975000E+03  2.064260E-06  4.149585E-10 -6.089769E-13 -2.064260E-06  1.130317E-08  2.286697E-12 -3.354426E-15 -1.130317E-08  0.000000E+00  0.000000E+00  0.000000E+00  0.000000E+00  0.000000E+00  0.000000E+00  0.000000E+00  0.000000E+00  1.528393E+00  3.542146E-04 -5.176384E-07 -1.528393E+00                                                                                                                                                                                                                                                                                                                                                                                                                                                                                              
  7.600000E+02  1.250000E+02 -4.975000E+03  2.064255E-06 -4.775173E-10 -1.652837E-12 -2.064255E-06  1.130368E-08 -2.630439E-12 -9.104829E-15 -1.130368E-08  0.000000E+00  0.000000E+00  0.000000E+00  0.000000E+00  0.000000E+00  0.000000E+00  0.000000E+00  0.000000E+00  1.528903E+00 -4.060289E-04 -1.405312E-06 -1.528902E+00                                                                                                                                                                                                                                                                                                                                                                                                                                                                                              
  7.800000E+02  1.250000E+02 -4.975000E+03  2.064360E-06 -6.471554E-10 -1.808825E-12 -2.064360E-06  1.130449E-08 -3.565031E-12 -9.964332E-15 -1.130449E-08  0.000000E+00  0.000000E+00  0.000000E+00  0.000000E+00  0.000000E+00  0.000000E+00  0.000000E+00  0.000000E+00  1.529199E+00 -5.503654E-04 -1.538109E-06 -1.529199E+00                                                                                                                                                                                                                                                                                                                                                                                                                                                                                              
  8.000000E+02  1.250000E+02 -4.975000E+03  2.064642E-06 -8.105204E-10 -1.965941E-12 -2.064642E-06  1.130648E-08 -4.465555E-12 -1.083035E-14 -1.130648E-08  0.000000E+00  0.000000E+00  0.000000E+00  0.000000E+00  0.000000E+00  0.000000E+00  0.000000E+00  0.000000E+00  1.529851E+00 -6.900590E-04 -1.672087E-06 -1.529851E+00                                                                                                                                                                                                                                                                                                                                                                                                                                                                                              
  9.350000E+02  1.250000E+02 -4.975000E+03  2.067064E-06 -1.144727E-09 -3.023516E-12 -2.067063E-06  1.132348E-08 -6.309204E-12 -1.666294E-14 -1.132347E-08  0.000000E+00  0.000000E+00  0.000000E+00  0.000000E+00  0.000000E+00  0.000000E+00  0.000000E+00  0.000000E+00  1.535345E+00 -9.768884E-04 -2.576308E-06 -1.535345E+00                                                                                                                                                                                                                                                                                                                                                                                                                                                                                              
  1.185000E+03  1.250000E+02 -4.975000E+03  2.069364E-06 -1.765919E-09 -7.279945E-12 -2.069364E-06  1.134125E-08 -9.738701E-12 -4.014163E-14 -1.134124E-08  0.000000E+00  0.000000E+00  0.000000E+00  0.000000E+00  0.000000E+00  0.000000E+00  0.000000E+00  0.000000E+00  1.542291E+00 -1.512213E-03 -6.218683E-06 -1.542290E+00                                                                                                                                                                                                                                                                                                                                                                                                                                                                                              
  1.435000E+03  1.250000E+02 -4.975000E+03  2.075175E-06 -1.065779E-09 -1.518884E-11 -2.075175E-06  1.138193E-08 -5.879177E-12 -8.382449E-14 -1.138193E-08  0.000000E+00  0.000000E+00  0.000000E+00  0.000000E+00  0.000000E+00  0.000000E+00  0.000000E+00  0.000000E+00  1.556024E+00 -9.141498E-04 -1.302850E-05 -1.556023E+00                                                                                                                                                                                                                                                                                                                                                                                                                                                                                              
  1.250000E+02  1.250000E+02 -4.725000E+03  2.103684E-06 -1.840120E-09 -3.362653E-12 -2.103683E-06  1.102520E-08 -9.633948E-12 -1.761316E-14 -1.102520E-08  0.000000E+00  0.000000E+00  0.000000E+00  0.000000E+00  0.000000E+00  0.000000E+00  0.000000E+00  0.000000E+00  1.092941E+00 -1.170110E-03 -2.153940E-06 -1.092940E+00                                                                                                                                                                                                                                                                                                                                                                                                                                                                                              
  3.750000E+02  1.250000E+02 -4.725000E+03  2.099671E-06 -3.260886E-09 -8.708123E-13 -2.099669E-06  1.099663E-08 -1.706631E-11 -4.556937E-15 -1.099661E-08  0.000000E+00  0.000000E+00  0.000000E+00  0.000000E+00  0.000000E+00  0.000000E+00  0.000000E+00  0.000000E+00  1.085674E+00 -2.068692E-03 -5.537331E-07 -1.085672E+00                                                                                                                                                                                                                                                                                                                                                                                                                                                                                              
  6.250000E+02  1.250000E+02 -4.725000E+03  2.096903E-06 -8.325893E-10  4.198119E-12 -2.096903E-06  1.097645E-08 -4.356477E-12  2.195364E-14 -1.097645E-08  0.000000E+00  0.000000E+00  0.000000E+00  0.000000E+00  0.000000E+00  0.000000E+00  0.000000E+00  0.000000E+00  1.080523E+00 -5.265822E-04  2.655157E-06 -1.080523E+00                                                                                                                                                                                                                                                                                                                                                                                                                                                                                              
  7.600000E+02  1.250000E+02 -4.725000E+03  2.097054E-06  1.367919E-09  6.372891E-12 -2.097054E-06  1.097762E-08  7.153718E-12  3.332805E-14 -1.097762E-08  0.000000E+00  0.000000E+00  0.000000E+00  0.000000E+00  0.000000E+00  0.000000E+00  0.000000E+00  0.000000E+00  1.080806E+00  8.653483E-04  4.032172E-06 -1.080806E+00                                                                                                                                                                                                                                                                                                                                                                                                                                                                                              
  7.800000E+02  1.250000E+02 -4.725000E+03  2.097146E-06  1.748897E-09  6.696652E-12 -2.097146E-06  1.097830E-08  9.146429E-12  3.502204E-14 -1.097830E-08  0.000000E+00  0.000000E+00  0.000000E+00  0.000000E+00  0.000000E+00  0.000000E+00  0.000000E+00  0.000000E+00  1.080979E+00  1.106654E-03  4.237809E-06 -1.080978E+00                                                                                                                                                                                                                                                                                                                                                                                                                                                                                              
  8.000000E+02  1.250000E+02 -4.725000E+03  2.097346E-06  2.113390E-09  7.024186E-12 -2.097344E-06  1.097977E-08  1.105427E-11  3.673678E-14 -1.097976E-08  0.000000E+00  0.000000E+00  0.000000E+00  0.000000E+00  0.000000E+00  0.000000E+00  0.000000E+00  0.000000E+00  1.081356E+00  1.337688E-03  4.446809E-06 -1.081355E+00                                                                                                                                                                                                                                                                                                                                                                                                                                                                                              
  9.350000E+02  1.250000E+02 -4.725000E+03  2.099059E-06  2.863565E-09  9.231642E-12 -2.099057E-06  1.099229E-08  1.498428E-11  4.830196E-14 -1.099228E-08  0.000000E+00  0.000000E+00  0.000000E+00  0.000000E+00  0.000000E+00  0.000000E+00  0.000000E+00  0.000000E+00  1.084585E+00  1.816431E-03  5.863564E-06 -1.084584E+00                                                                                                                                                                                                                                                                                                                                                                                                                                                                                              
  1.185000E+03  1.250000E+02 -4.725000E+03  2.101384E-06  3.906207E-09  1.778064E-11 -2.101380E-06  1.100916E-08  2.045423E-11  9.308686E-14 -1.100914E-08  0.000000E+00  0.000000E+00  0.000000E+00  0.000000E+00  0.000000E+00  0.000000E+00  0.000000E+00  0.000000E+00  1.088814E+00  2.487444E-03  1.134541E-05 -1.088811E+00                                                                                                                                                                                                                                                                                                                                                                                                                                                                                              