Title="TOUGHREACT V3.30-OMP flowvector.tec: Liq & Gas Fluxes (kg/s/m^2), Pore Velocities (m/s), & Heat Fluxes (J/s/m2)"                                                                                                                                                                                                                                                                                                                                                                                                                                                                                                                                                                                                                                                                                                         
Variables= "X(m)"     "Y(m)"      "Z(m)"     "FluxLiq"   "FluxLiq_X"   "FluxLiq_Y"   "FluxLiq_Z"   "PorVelLiq"  "PorVelLiqX"  "PorVelLiqY"  "PorVelLiqZ"     "FluxGas"   "FluxGas_X"   "FluxGas_Y"   "FluxGas_Z"   "PorVelGas"  "PorVelGasX"  "PorVelGasY"  "PorVelGasZ"    "HeatFlux"  "HeatFlux_X"  "HeatFlux_Y"  "HeatFlux_Z"                                                                                                                                                                                                                                                                                                                                                                                                                                                                                                
Zone T= "2.00000000E+10 sec" I=     9 J=    10 K=    23 F=Point
  1.250000E+02  1.250000E+02 -5.425000E+03  1.064427E-06  0.000000E+00  0.000000E+00 -1.064427E-06  6.211978E-09  0.000000E+00  0.000000E+00 -6.211978E-09  0.000000E+00  0.000000E+00  0.000000E+00  0.000000E+00  0.000000E+00  0.000000E+00  0.000000E+00  0.000000E+00  1.093845E+00  0.000000E+00  0.000000E+00 -1.093845E+00                                                                                                                                                                                                                                                                                                                                                                                                                                                                                              
  3.750000E+02  1.250000E+02 -5.425000E+03  1.062165E-06  0.000000E+00  0.000000E+00 -1.062165E-06  6.198833E-09  0.000000E+00  0.000000E+00 -6.198833E-09  0.000000E+00  0.000000E+00  0.000000E+00  0.000000E+00  0.000000E+00  0.000000E+00  0.000000E+00  0.000000E+00  1.091552E+00  0.000000E+00  0.000000E+00 -1.091552E+00                                                                                                                                                                                                                                                                                                                                                                                                                                                                                              
  6.250000E+02  1.250000E+02 -5.425000E+03  1.060638E-06  0.000000E+00  0.000000E+00 -1.060638E-06  6.189912E-09  0.000000E+00  0.000000E+00 -6.189912E-09  0.000000E+00  0.000000E+00  0.000000E+00  0.000000E+00  0.000000E+00  0.000000E+00  0.000000E+00  0.000000E+00  1.089947E+00  0.000000E+00  0.000000E+00 -1.089947E+00                                                                                                                                                                                                                                                                                                                                                                                                                                                                                              
  7.600000E+02  1.250000E+02 -5.425000E+03  1.061015E-06  0.000000E+00  0.000000E+00 -1.061015E-06  6.192099E-09  0.000000E+00  0.000000E+00 -6.192099E-09  0.000000E+00  0.000000E+00  0.000000E+00  0.000000E+00  0.000000E+00  0.000000E+00  0.000000E+00  0.000000E+00  1.090326E+00  0.000000E+00  0.000000E+00 -1.090326E+00                                                                                                                                                                                                                                                                                                                                                                                                                                                                                              
  7.800000E+02  1.250000E+02 -5.425000E+03  1.061086E-06  0.000000E+00  0.000000E+00 -1.061086E-06  6.192517E-09  0.000000E+00  0.000000E+00 -6.192517E-09  0.000000E+00  0.000000E+00  0.000000E+00  0.000000E+00  0.000000E+00  0.000000E+00  0.000000E+00  0.000000E+00  1.090402E+00  0.000000E+00  0.000000E+00 -1.090402E+00                                                                                                                                                                                                                                                                                                                                                                                                                                                                                              
  8.000000E+02  1.250000E+02 -5.425000E+03  1.061174E-06  0.000000E+00  0.000000E+00 -1.061174E-06  6.193035E-09  0.000000E+00  0.000000E+00 -6.193035E-09  0.000000E+00  0.000000E+00  0.000000E+00  0.000000E+00  0.000000E+00  0.000000E+00  0.000000E+00  0.000000E+00  1.090499E+00  0.000000E+00  0.000000E+00 -1.090499E+00                                                                                                                                                                                                                                                                                                                                                                                                                                                                                              
  9.350000E+02  1.250000E+02 -5.425000E+03  1.061870E-06  0.000000E+00  0.000000E+00 -1.061870E-06  6.197144E-09  0.000000E+00  0.000000E+00 -6.197144E-09  0.000000E+00  0.000000E+00  0.000000E+00  0.000000E+00  0.000000E+00  0.000000E+00  0.000000E+00  0.000000E+00  1.091282E+00  0.000000E+00  0.000000E+00 -1.091282E+00                                                                                                                                                                                                                                                                                                                                                                                                                                                                                              
  1.185000E+03  1.250000E+02 -5.425000E+03  1.064885E-06  0.000000E+00  0.000000E+00 -1.064885E-06  6.214654E-09  0.000000E+00  0.000000E+00 -6.214654E-09  0.000000E+00  0.000000E+00  0.000000E+00  0.000000E+00  0.000000E+00  0.000000E+00  0.000000E+00  0.000000E+00  1.094328E+00  0.000000E+00  0.000000E+00 -1.094328E+00                                                                                                                                                                                                                                                                                                                                                                                                                                                                                              
  1.435000E+03  1.250000E+02 -5.425000E+03  1.068434E-06  0.000000E+00  0.000000E+00 -1.068434E-06  6.235261E-09  0.000000E+00  0.000000E+00 -6.235261E-09  0.000000E+00  0.000000E+00  0.000000E+00  0.000000E+00  0.000000E+00  0.000000E+00  0.000000E+00  0.000000E+00  1.097907E+00  0.000000E+00  0.000000E+00 -1.097907E+00                                                                                                                                                                                                                                                                                                                                                                                                                                                                                              
  1.250000E+02  1.250000E+02 -5.225000E+03  2.135889E-06  1.831617E-09 -1.134243E-11 -2.135888E-06  1.234903E-08  1.061064E-11 -6.570686E-14 -1.234902E-08  0.000000E+00  0.000000E+00  0.000000E+00  0.000000E+00  0.000000E+00  0.000000E+00  0.000000E+00  0.000000E+00  2.133282E+00  1.882238E-03 -1.165590E-05 -2.133281E+00                                                                                                                                                                                                                                                                                                                                                                                                                                                                                              
  3.750000E+02  1.250000E+02 -5.225000E+03  2.129004E-06  3.053650E-09 -2.109257E-11 -2.129002E-06  1.230863E-08  1.768996E-11 -1.221913E-13 -1.230861E-08  0.000000E+00  0.000000E+00  0.000000E+00  0.000000E+00  0.000000E+00  0.000000E+00  0.000000E+00  0.000000E+00  2.125341E+00  3.138080E-03 -2.167612E-05 -2.125339E+00                                                                                                                                                                                                                                                                                                                                                                                                                                                                                              
  6.250000E+02  1.250000E+02 -5.225000E+03  2.124848E-06  6.554650E-10 -3.662941E-11 -2.124848E-06  1.228371E-08  3.797166E-12 -2.121964E-13 -1.228371E-08  0.000000E+00  0.000000E+00  0.000000E+00  0.000000E+00  0.000000E+00  0.000000E+00  0.000000E+00  0.000000E+00  2.119947E+00  6.736226E-04 -3.764159E-05 -2.119947E+00                                                                                                                                                                                                                                                                                                                                                                                                                                                                                              
  7.600000E+02  1.250000E+02 -5.225000E+03  2.125518E-06 -1.281285E-09 -4.806274E-11 -2.125518E-06  1.228764E-08 -7.422547E-12 -2.784295E-13 -1.228764E-08  0.000000E+00  0.000000E+00  0.000000E+00  0.000000E+00  0.000000E+00  0.000000E+00  0.000000E+00  0.000000E+00  2.120716E+00 -1.316683E-03 -4.939047E-05 -2.120716E+00                                                                                                                                                                                                                                                                                                                                                                                                                                                                                              
  7.800000E+02  1.250000E+02 -5.225000E+03  2.125666E-06 -1.576763E-09 -4.979789E-11 -2.125665E-06  1.228853E-08 -9.134261E-12 -2.884814E-13 -1.228853E-08  0.000000E+00  0.000000E+00  0.000000E+00  0.000000E+00  0.000000E+00  0.000000E+00  0.000000E+00  0.000000E+00  2.120916E+00 -1.620331E-03 -5.117365E-05 -2.120915E+00                                                                                                                                                                                                                                                                                                                                                                                                                                                                                              
  8.000000E+02  1.250000E+02 -5.225000E+03  2.125871E-06 -1.868330E-09 -5.157595E-11 -2.125870E-06  1.228981E-08 -1.082338E-11 -2.987823E-13 -1.228980E-08  0.000000E+00  0.000000E+00  0.000000E+00  0.000000E+00  0.000000E+00  0.000000E+00  0.000000E+00  0.000000E+00  2.121232E+00 -1.920024E-03 -5.300118E-05 -2.121231E+00                                                                                                                                                                                                                                                                                                                                                                                                                                                                                              
  9.350000E+02  1.250000E+02 -5.225000E+03  2.127552E-06 -3.450267E-09 -6.386961E-11 -2.127549E-06  1.230028E-08 -1.998769E-11 -3.700064E-13 -1.230026E-08  0.000000E+00  0.000000E+00  0.000000E+00  0.000000E+00  0.000000E+00  0.000000E+00  0.000000E+00  0.000000E+00  2.123849E+00 -3.545714E-03 -6.563861E-05 -2.123846E+00                                                                                                                                                                                                                                                                                                                                                                                                                                                                                              
  1.185000E+03  1.250000E+02 -5.225000E+03  2.134484E-06 -5.323171E-09 -9.424070E-11 -2.134477E-06  1.234076E-08 -3.083712E-11 -5.459389E-13 -1.234072E-08  0.000000E+00  0.000000E+00  0.000000E+00  0.000000E+00  0.000000E+00  0.000000E+00  0.000000E+00  0.000000E+00  2.131569E+00 -5.470169E-03 -9.684624E-05 -2.131562E+00                                                                                                                                                                                                                                                                                                                                                                                                                                                                                              
  1.435000E+03  1.250000E+02 -5.225000E+03  2.144773E-06 -2.879189E-09 -1.237001E-10 -2.144771E-06  1.240068E-08 -1.667894E-11 -7.165784E-13 -1.240067E-08  0.000000E+00  0.000000E+00  0.000000E+00  0.000000E+00  0.000000E+00  0.000000E+00  0.000000E+00  0.000000E+00  2.142870E+00 -2.958612E-03 -1.271122E-04 -2.142868E+00                                                                                                                                                                                                                                                                                                                                                                                                                                                                                              
  1.250000E+02  1.250000E+02 -4.975000E+03  2.160404E-06  5.901942E-09  5.581496E-13 -2.160396E-06  1.220140E-08  3.353910E-11  3.172293E-15 -1.220136E-08  0.000000E+00  0.000000E+00  0.000000E+00  0.000000E+00  0.000000E+00  0.000000E+00  0.000000E+00  0.000000E+00  1.953167E+00  5.725538E-03  5.414670E-07 -1.953159E+00                                                                                                                                                                                                                                                                                                                                                                                                                                                                                              
  3.750000E+02  1.250000E+02 -4.975000E+03  2.143149E-06  9.199081E-09 -2.604903E-11 -2.143129E-06  1.209718E-08  5.227030E-11 -1.480100E-13 -1.209707E-08  0.000000E+00  0.000000E+00  0.000000E+00  0.000000E+00  0.000000E+00  0.000000E+00  0.000000E+00  0.000000E+00  1.928086E+00  8.920534E-03 -2.524200E-05 -1.928066E+00                                                                                                                                                                                                                                                                                                                                                                                                                                                                                              
  6.250000E+02  1.250000E+02 -4.975000E+03  2.136573E-06  2.300791E-09 -5.768049E-11 -2.136571E-06  1.205376E-08  1.307167E-11 -3.276369E-13 -1.205375E-08  0.000000E+00  0.000000E+00  0.000000E+00  0.000000E+00  0.000000E+00  0.000000E+00  0.000000E+00  0.000000E+00  1.914199E+00  2.230577E-03 -5.582637E-05 -1.914198E+00                                                                                                                                                                                                                                                                                                                                                                                                                                                                                              
  7.600000E+02  1.250000E+02 -4.975000E+03  2.136547E-06 -2.380038E-09 -7.949888E-11 -2.136545E-06  1.205419E-08 -1.351942E-11 -4.515816E-13 -1.205418E-08  0.000000E+00  0.000000E+00  0.000000E+00  0.000000E+00  0.000000E+00  0.000000E+00  0.000000E+00  0.000000E+00  1.914880E+00 -2.303833E-03 -7.695145E-05 -1.914879E+00                                                                                                                                                                                                                                                                                                                                                                                                                                                                                              
  7.800000E+02  1.250000E+02 -4.975000E+03  2.136665E-06 -3.156022E-09 -8.282556E-11 -2.136663E-06  1.205510E-08 -1.792762E-11 -4.704843E-13 -1.205508E-08  0.000000E+00  0.000000E+00  0.000000E+00  0.000000E+00  0.000000E+00  0.000000E+00  0.000000E+00  0.000000E+00  1.915280E+00 -3.055208E-03 -8.017543E-05 -1.915278E+00                                                                                                                                                                                                                                                                                                                                                                                                                                                                                              
  8.000000E+02  1.250000E+02 -4.975000E+03  2.136975E-06 -3.924630E-09 -8.625135E-11 -2.136971E-06  1.205733E-08 -2.229534E-11 -4.899574E-13 -1.205731E-08  0.000000E+00  0.000000E+00  0.000000E+00  0.000000E+00  0.000000E+00  0.000000E+00  0.000000E+00  0.000000E+00  1.916148E+00 -3.801212E-03 -8.350013E-05 -1.916145E+00                                                                                                                                                                                                                                                                                                                                                                                                                                                                                              
  9.350000E+02  1.250000E+02 -4.975000E+03  2.139697E-06 -8.044418E-09 -1.100448E-10 -2.139682E-06  1.207680E-08 -4.570895E-11 -6.252585E-13 -1.207671E-08  0.000000E+00  0.000000E+00  0.000000E+00  0.000000E+00  0.000000E+00  0.000000E+00  0.000000E+00  0.000000E+00  1.923565E+00 -7.799286E-03 -1.066256E-04 -1.923549E+00                                                                                                                                                                                                                                                                                                                                                                                                                                                                                              
  1.185000E+03  1.250000E+02 -4.975000E+03  2.147714E-06 -1.491785E-08 -1.777899E-10 -2.147662E-06  1.212705E-08 -8.478128E-11 -1.010388E-12 -1.212676E-08  0.000000E+00  0.000000E+00  0.000000E+00  0.000000E+00  0.000000E+00  0.000000E+00  0.000000E+00  0.000000E+00  1.937463E+00 -1.447649E-02 -1.724119E-04 -1.937409E+00                                                                                                                                                                                                                                                                                                                                                                                                                                                                                              
  1.435000E+03  1.250000E+02 -4.975000E+03  2.172638E-06 -9.025724E-09 -2.624830E-10 -2.172619E-06  1.227526E-08 -5.129993E-11 -1.492117E-12 -1.227516E-08  0.000000E+00  0.000000E+00  0.000000E+00  0.000000E+00  0.000000E+00  0.000000E+00  0.000000E+00  0.000000E+00  1.970912E+00 -8.762618E-03 -2.548344E-04 -1.970893E+00                                                                                                                                                                                                                                                                                                                                                                                                                                                                                              
  1.250000E+02  1.250000E+02 -4.725000E+03  2.225083E-06  1.203088E-08  5.683540E-11 -2.225050E-06  1.201665E-08  6.581166E-11  3.112215E-13 -1.201647E-08  0.000000E+00  0.000000E+00  0.000000E+00  0.000000E+00  0.000000E+00  0.000000E+00  0.000000E+00  0.000000E+00  1.388874E+00  1.009509E-02  4.769048E-05 -1.388838E+00                                                                                                                                                                                                                                                                                                                                                                                                                                                                                              
  3.750000E+02  1.250000E+02 -4.725000E+03  2.177501E-06  1.427228E-08 -5.410722E-12 -2.177454E-06  1.174339E-08  7.805146E-11 -2.957014E-14 -1.174313E-08  0.000000E+00  0.000000E+00  0.000000E+00  0.000000E+00  0.000000E+00  0.000000E+00  0.000000E+00  0.000000E+00  1.335149E+00  1.195744E-02 -4.495637E-06 -1.335096E+00                                                                                                                                                                                                                                                                                                                                                                                                                                                                                              
  6.250000E+02  1.250000E+02 -4.725000E+03  2.177016E-06  2.664469E-09 -3.190766E-11 -2.177015E-06  1.172954E-08  1.454853E-11 -1.741119E-13 -1.172953E-08  0.000000E+00  0.000000E+00  0.000000E+00  0.000000E+00  0.000000E+00  0.000000E+00  0.000000E+00  0.000000E+00  1.326062E+00  2.211188E-03 -2.630920E-05 -1.326060E+00                                                                                                                                                                                                                                                                                                                                                                                                                                                                                              
  7.600000E+02  1.250000E+02 -4.725000E+03  2.176696E-06  7.230306E-10 -4.880002E-11 -2.176696E-06  1.172857E-08  3.945789E-12 -2.663228E-13 -1.172857E-08  0.000000E+00  0.000000E+00  0.000000E+00  0.000000E+00  0.000000E+00  0.000000E+00  0.000000E+00  0.000000E+00  1.326351E+00  5.963182E-04 -4.026307E-05 -1.326351E+00                                                                                                                                                                                                                                                                                                                                                                                                                                                                                              
  7.800000E+02  1.250000E+02 -4.725000E+03  2.176678E-06  4.671701E-10 -5.144134E-11 -2.176678E-06  1.172885E-08  2.549693E-12 -2.807529E-13 -1.172885E-08  0.000000E+00  0.000000E+00  0.000000E+00  0.000000E+00  0.000000E+00  0.000000E+00  0.000000E+00  0.000000E+00  1.326602E+00  3.854763E-04 -4.245391E-05 -1.326602E+00                                                                                                                                                                                                                                                                                                                                                                                                                                                                                              
  8.000000E+02  1.250000E+02 -4.725000E+03  2.176719E-06  1.708997E-10 -5.424791E-11 -2.176719E-06  1.172985E-08  9.327872E-13 -2.961033E-13 -1.172985E-08  0.000000E+00  0.000000E+00  0.000000E+00  0.000000E+00  0.000000E+00  0.000000E+00  0.000000E+00  0.000000E+00  1.327191E+00  1.410409E-04 -4.479508E-05 -1.327191E+00                                                                                                                                                                                                                                                                                                                                                                                                                                                                                              
  9.350000E+02  1.250000E+02 -4.725000E+03  2.177161E-06 -5.411259E-09 -7.438654E-11 -2.177155E-06  1.173886E-08 -2.958245E-11 -4.064066E-13 -1.173883E-08  0.000000E+00  0.000000E+00  0.000000E+00  0.000000E+00  0.000000E+00  0.000000E+00  0.000000E+00  0.000000E+00  1.332281E+00 -4.518365E-03 -6.171159E-05 -1.332274E+00                                                                                                                                                                                                                                                                                                                                                                                                                                                                                              
  1.185000E+03  1.250000E+02 -4.725000E+03  2.176969E-06 -2.493113E-08 -1.523891E-10 -2.176826E-06  1.174784E-08 -1.364823E-10 -8.336500E-13 -1.174705E-08  0.000000E+00  0.000000E+00  0.000000E+00  0.000000E+00  0.000000E+00  0.000000E+00  0.000000E+00  0.000000E+00  1.340921E+00 -2.100499E-02 -1.272484E-04 -1.340757E+00                                                                                                                                                                                                                                                                                                                                                                                                                                                                                              