Title="TOUGHREACT V3.30-OMP flowvector.tec: Liq & Gas Fluxes (kg/s/m^2), Pore Velocities (m/s), & Heat Fluxes (J/s/m2)"                                                                                                                                                                                                                                                                                                                                                                                                                                                                                                                                                                                                                                                                                                         
Variables= "X(m)"     "Y(m)"      "Z(m)"     "FluxLiq"   "FluxLiq_X"   "FluxLiq_Y"   "FluxLiq_Z"   "PorVelLiq"  "PorVelLiqX"  "PorVelLiqY"  "PorVelLiqZ"     "FluxGas"   "FluxGas_X"   "FluxGas_Y"   "FluxGas_Z"   "PorVelGas"  "PorVelGasX"  "PorVelGasY"  "PorVelGasZ"    "HeatFlux"  "HeatFlux_X"  "HeatFlux_Y"  "HeatFlux_Z"                                                                                                                                                                                                                                                                                                                                                                                                                                                                                                
Zone T= "1.00000000E+06 sec" I=     9 J=    10 K=    23 F=Point
  1.250000E+02  1.250000E+02 -5.425000E+03  1.117394E-07  2.214506E-17 -5.303253E-17  1.117394E-07  5.900267E-10  1.171246E-19 -2.804877E-19  5.900267E-10  0.000000E+00  0.000000E+00  0.000000E+00  0.000000E+00  0.000000E+00  0.000000E+00  0.000000E+00  0.000000E+00  7.348365E-02  1.456335E-11 -3.487602E-11  7.348365E-02                                                                                                                                                                                                                                                                                                                                                                                                                                                                                              
  3.750000E+02  1.250000E+02 -5.425000E+03  1.117394E-07  1.438887E-16 -2.696422E-17  1.117394E-07  5.900267E-10  7.610235E-19 -1.426131E-19  5.900267E-10  0.000000E+00  0.000000E+00  0.000000E+00  0.000000E+00  0.000000E+00  0.000000E+00  0.000000E+00  0.000000E+00  7.348365E-02  9.462614E-11 -1.773260E-11  7.348365E-02                                                                                                                                                                                                                                                                                                                                                                                                                                                                                              
  6.250000E+02  1.250000E+02 -5.425000E+03  1.117394E-07 -7.345559E-17 -1.031244E-16  1.117394E-07  5.900267E-10 -3.885047E-19 -5.454224E-19  5.900267E-10  0.000000E+00  0.000000E+00  0.000000E+00  0.000000E+00  0.000000E+00  0.000000E+00  0.000000E+00  0.000000E+00  7.348365E-02 -4.830693E-11 -6.781817E-11  7.348365E-02                                                                                                                                                                                                                                                                                                                                                                                                                                                                                              
  7.600000E+02  1.250000E+02 -5.425000E+03  1.117394E-07  6.045335E-16  1.165632E-16  1.117394E-07  5.900267E-10  3.197362E-18  6.164997E-19  5.900267E-10  0.000000E+00  0.000000E+00  0.000000E+00  0.000000E+00  0.000000E+00  0.000000E+00  0.000000E+00  0.000000E+00  7.348365E-02  3.975621E-10  7.665597E-11  7.348365E-02                                                                                                                                                                                                                                                                                                                                                                                                                                                                                              
  7.800000E+02  1.250000E+02 -5.425000E+03  1.117394E-07  3.205253E-16  7.547382E-17  1.117394E-07  5.900267E-10  1.695250E-18  3.991791E-19  5.900267E-10  0.000000E+00  0.000000E+00  0.000000E+00  0.000000E+00  0.000000E+00  0.000000E+00  0.000000E+00  0.000000E+00  7.348365E-02  2.107885E-10  4.963418E-11  7.348365E-02                                                                                                                                                                                                                                                                                                                                                                                                                                                                                              
  8.000000E+02  1.250000E+02 -5.425000E+03  1.117394E-07 -7.366365E-16 -1.848191E-17  1.117394E-07  5.900267E-10 -3.896052E-18 -9.775034E-20  5.900267E-10  0.000000E+00  0.000000E+00  0.000000E+00  0.000000E+00  0.000000E+00  0.000000E+00  0.000000E+00  0.000000E+00  7.348365E-02 -4.844375E-10 -1.215434E-11  7.348365E-02                                                                                                                                                                                                                                                                                                                                                                                                                                                                                              
  9.350000E+02  1.250000E+02 -5.425000E+03  1.117394E-07 -1.575415E-16 -2.062055E-17  1.117394E-07  5.900267E-10 -8.332330E-19 -1.090616E-19  5.900267E-10  0.000000E+00  0.000000E+00  0.000000E+00  0.000000E+00  0.000000E+00  0.000000E+00  0.000000E+00  0.000000E+00  7.348365E-02 -1.036047E-10 -1.356078E-11  7.348365E-02                                                                                                                                                                                                                                                                                                                                                                                                                                                                                              
  1.185000E+03  1.250000E+02 -5.425000E+03  1.117394E-07  2.198610E-17  2.897281E-17  1.117394E-07  5.900267E-10  1.162839E-19  1.532365E-19  5.900267E-10  0.000000E+00  0.000000E+00  0.000000E+00  0.000000E+00  0.000000E+00  0.000000E+00  0.000000E+00  0.000000E+00  7.348365E-02  1.445882E-11  1.905352E-11  7.348365E-02                                                                                                                                                                                                                                                                                                                                                                                                                                                                                              
  1.435000E+03  1.250000E+02 -5.425000E+03  1.117394E-07 -7.790146E-17  5.517117E-17  1.117394E-07  5.900267E-10 -4.120188E-19  2.917989E-19  5.900267E-10  0.000000E+00  0.000000E+00  0.000000E+00  0.000000E+00  0.000000E+00  0.000000E+00  0.000000E+00  0.000000E+00  7.348365E-02 -5.123068E-11  3.628246E-11  7.348365E-02                                                                                                                                                                                                                                                                                                                                                                                                                                                                                              
  1.250000E+02  1.250000E+02 -5.225000E+03  2.151336E-07 -6.617225E-18  3.442081E-18  2.151336E-07  1.134019E-09 -3.488462E-20  1.814593E-20  1.134019E-09  0.000000E+00  0.000000E+00  0.000000E+00  0.000000E+00  0.000000E+00  0.000000E+00  0.000000E+00  0.000000E+00  1.392307E-01 -4.207807E-12  2.188774E-12  1.392307E-01                                                                                                                                                                                                                                                                                                                                                                                                                                                                                              
  3.750000E+02  1.250000E+02 -5.225000E+03  2.151336E-07  1.896657E-17  5.949883E-18  2.151336E-07  1.134019E-09  9.998776E-20  3.136653E-20  1.134019E-09  0.000000E+00  0.000000E+00  0.000000E+00  0.000000E+00  0.000000E+00  0.000000E+00  0.000000E+00  0.000000E+00  1.392307E-01  1.206059E-11  3.783453E-12  1.392307E-01                                                                                                                                                                                                                                                                                                                                                                                                                                                                                              
  6.250000E+02  1.250000E+02 -5.225000E+03  2.151336E-07  2.355445E-17  1.285512E-18  2.151336E-07  1.134019E-09  1.241741E-19  6.776948E-21  1.134019E-09  0.000000E+00  0.000000E+00  0.000000E+00  0.000000E+00  0.000000E+00  0.000000E+00  0.000000E+00  0.000000E+00  1.392307E-01  1.497797E-11  8.174402E-13  1.392307E-01                                                                                                                                                                                                                                                                                                                                                                                                                                                                                              
  7.600000E+02  1.250000E+02 -5.225000E+03  2.151336E-07 -1.300537E-17  1.187167E-18  2.151336E-07  1.134019E-09 -6.856157E-20  6.258493E-21  1.134019E-09  0.000000E+00  0.000000E+00  0.000000E+00  0.000000E+00  0.000000E+00  0.000000E+00  0.000000E+00  0.000000E+00  1.392307E-01 -8.269944E-12  7.549038E-13  1.392307E-01                                                                                                                                                                                                                                                                                                                                                                                                                                                                                              
  7.800000E+02  1.250000E+02 -5.225000E+03  2.151336E-07 -5.672409E-17  2.409457E-18  2.151336E-07  1.134019E-09 -2.990375E-19  1.270215E-20  1.134019E-09  0.000000E+00  0.000000E+00  0.000000E+00  0.000000E+00  0.000000E+00  0.000000E+00  0.000000E+00  0.000000E+00  1.392307E-01 -3.607011E-11  1.532142E-12  1.392307E-01                                                                                                                                                                                                                                                                                                                                                                                                                                                                                              
  8.000000E+02  1.250000E+02 -5.225000E+03  2.151336E-07 -4.404394E-17  5.226343E-18  2.151336E-07  1.134019E-09 -2.321904E-19  2.755218E-20  1.134019E-09  0.000000E+00  0.000000E+00  0.000000E+00  0.000000E+00  0.000000E+00  0.000000E+00  0.000000E+00  0.000000E+00  1.392307E-01 -2.800696E-11  3.323363E-12  1.392307E-01                                                                                                                                                                                                                                                                                                                                                                                                                                                                                              
  9.350000E+02  1.250000E+02 -5.225000E+03  2.151336E-07 -1.345508E-17 -1.791287E-18  2.151336E-07  1.134019E-09 -7.093233E-20 -9.443289E-21  1.134019E-09  0.000000E+00  0.000000E+00  0.000000E+00  0.000000E+00  0.000000E+00  0.000000E+00  0.000000E+00  0.000000E+00  1.392307E-01 -8.555907E-12 -1.139056E-12  1.392307E-01                                                                                                                                                                                                                                                                                                                                                                                                                                                                                              
  1.185000E+03  1.250000E+02 -5.225000E+03  2.151336E-07 -1.139399E-17 -8.766770E-18  2.151336E-07  1.134019E-09 -6.006672E-20 -4.621657E-20  1.134019E-09  0.000000E+00  0.000000E+00  0.000000E+00  0.000000E+00  0.000000E+00  0.000000E+00  0.000000E+00  0.000000E+00  1.392307E-01 -7.245290E-12 -5.574674E-12  1.392307E-01                                                                                                                                                                                                                                                                                                                                                                                                                                                                                              
  1.435000E+03  1.250000E+02 -5.225000E+03  2.151336E-07  3.765215E-18  5.900710E-19  2.151336E-07  1.134019E-09  1.984942E-20  3.110730E-21  1.134019E-09  0.000000E+00  0.000000E+00  0.000000E+00  0.000000E+00  0.000000E+00  0.000000E+00  0.000000E+00  0.000000E+00  1.392307E-01  2.394251E-12  3.752185E-13  1.392307E-01                                                                                                                                                                                                                                                                                                                                                                                                                                                                                              
  1.250000E+02  1.250000E+02 -4.975000E+03  1.995138E-07  6.007350E-16 -6.820782E-17  1.995138E-07  1.047735E-09  3.154414E-18 -3.581540E-19  1.047735E-09  0.000000E+00  0.000000E+00  0.000000E+00  0.000000E+00  0.000000E+00  0.000000E+00  0.000000E+00  0.000000E+00  1.242548E-01  3.656662E-10 -4.151796E-11  1.242548E-01                                                                                                                                                                                                                                                                                                                                                                                                                                                                                              
  3.750000E+02  1.250000E+02 -4.975000E+03  1.995139E-07  1.795066E-15 -1.239435E-16  1.995139E-07  1.047735E-09  9.425752E-18 -6.508177E-19  1.047735E-09  0.000000E+00  0.000000E+00  0.000000E+00  0.000000E+00  0.000000E+00  0.000000E+00  0.000000E+00  0.000000E+00  1.242549E-01  1.092653E-09 -7.544414E-11  1.242549E-01                                                                                                                                                                                                                                                                                                                                                                                                                                                                                              
  6.250000E+02  1.250000E+02 -4.975000E+03  1.995140E-07  2.737831E-15 -9.118288E-17  1.995140E-07  1.047736E-09  1.437614E-17 -4.787943E-19  1.047736E-09  0.000000E+00  0.000000E+00  0.000000E+00  0.000000E+00  0.000000E+00  0.000000E+00  0.000000E+00  0.000000E+00  1.242550E-01  1.666512E-09 -5.550283E-11  1.242550E-01                                                                                                                                                                                                                                                                                                                                                                                                                                                                                              
  7.600000E+02  1.250000E+02 -4.975000E+03  1.995141E-07  2.117031E-15 -9.544629E-17  1.995141E-07  1.047736E-09  1.111637E-17 -5.011811E-19  1.047736E-09  0.000000E+00  0.000000E+00  0.000000E+00  0.000000E+00  0.000000E+00  0.000000E+00  0.000000E+00  0.000000E+00  1.242550E-01  1.288632E-09 -5.809796E-11  1.242550E-01                                                                                                                                                                                                                                                                                                                                                                                                                                                                                              
  7.800000E+02  1.250000E+02 -4.975000E+03  1.995141E-07  1.510804E-16 -9.801110E-17  1.995141E-07  1.047736E-09  7.933117E-19 -5.146488E-19  1.047736E-09  0.000000E+00  0.000000E+00  0.000000E+00  0.000000E+00  0.000000E+00  0.000000E+00  0.000000E+00  0.000000E+00  1.242550E-01  9.196235E-11 -5.965916E-11  1.242550E-01                                                                                                                                                                                                                                                                                                                                                                                                                                                                                              
  8.000000E+02  1.250000E+02 -4.975000E+03  1.995141E-07 -1.818862E-15 -9.473572E-17  1.995141E-07  1.047736E-09 -9.550702E-18 -4.974500E-19  1.047736E-09  0.000000E+00  0.000000E+00  0.000000E+00  0.000000E+00  0.000000E+00  0.000000E+00  0.000000E+00  0.000000E+00  1.242550E-01 -1.107137E-09 -5.766544E-11  1.242550E-01                                                                                                                                                                                                                                                                                                                                                                                                                                                                                              
  9.350000E+02  1.250000E+02 -4.975000E+03  1.995140E-07 -2.516633E-15 -9.673208E-17  1.995140E-07  1.047736E-09 -1.321465E-17 -5.079327E-19  1.047736E-09  0.000000E+00  0.000000E+00  0.000000E+00  0.000000E+00  0.000000E+00  0.000000E+00  0.000000E+00  0.000000E+00  1.242550E-01 -1.531869E-09 -5.888062E-11  1.242550E-01                                                                                                                                                                                                                                                                                                                                                                                                                                                                                              
  1.185000E+03  1.250000E+02 -4.975000E+03  1.995139E-07 -1.672888E-15 -5.589130E-17  1.995139E-07  1.047735E-09 -8.784208E-18 -2.934809E-19  1.047735E-09  0.000000E+00  0.000000E+00  0.000000E+00  0.000000E+00  0.000000E+00  0.000000E+00  0.000000E+00  0.000000E+00  1.242549E-01 -1.018284E-09 -3.402092E-11  1.242549E-01                                                                                                                                                                                                                                                                                                                                                                                                                                                                                              
  1.435000E+03  1.250000E+02 -4.975000E+03  1.995138E-07 -5.526668E-16 -5.541759E-17  1.995138E-07  1.047735E-09 -2.902011E-18 -2.909935E-19  1.047735E-09  0.000000E+00  0.000000E+00  0.000000E+00  0.000000E+00  0.000000E+00  0.000000E+00  0.000000E+00  0.000000E+00  1.242548E-01 -3.364071E-10 -3.373257E-11  1.242548E-01                                                                                                                                                                                                                                                                                                                                                                                                                                                                                              
  1.250000E+02  1.250000E+02 -4.725000E+03  6.715196E-07  6.516611E-14 -1.315241E-14  6.715196E-07  3.509741E-09  3.408695E-16 -6.879737E-17  3.509741E-09  0.000000E+00  0.000000E+00  0.000000E+00  0.000000E+00  0.000000E+00  0.000000E+00  0.000000E+00  0.000000E+00  3.931026E-01  3.789406E-08 -7.648123E-09  3.931026E-01                                                                                                                                                                                                                                                                                                                                                                                                                                                                                              
  3.750000E+02  1.250000E+02 -4.725000E+03  6.715212E-07  1.977248E-13 -1.526750E-14  6.715212E-07  3.509750E-09  1.034254E-15 -7.986089E-17  3.509750E-09  0.000000E+00  0.000000E+00  0.000000E+00  0.000000E+00  0.000000E+00  0.000000E+00  0.000000E+00  0.000000E+00  3.931036E-01  1.149769E-07 -8.878043E-09  3.931036E-01                                                                                                                                                                                                                                                                                                                                                                                                                                                                                              
  6.250000E+02  1.250000E+02 -4.725000E+03  6.715247E-07  3.120123E-13 -1.750673E-14  6.715247E-07  3.509768E-09  1.632067E-15 -9.157385E-17  3.509768E-09  0.000000E+00  0.000000E+00  0.000000E+00  0.000000E+00  0.000000E+00  0.000000E+00  0.000000E+00  0.000000E+00  3.931056E-01  1.814350E-07 -1.018016E-08  3.931056E-01                                                                                                                                                                                                                                                                                                                                                                                                                                                                                              
  7.600000E+02  1.250000E+02 -4.725000E+03  6.715278E-07  2.443432E-13 -1.597482E-14  6.715278E-07  3.509785E-09  1.278105E-15 -8.356073E-17  3.509785E-09  0.000000E+00  0.000000E+00  0.000000E+00  0.000000E+00  0.000000E+00  0.000000E+00  0.000000E+00  0.000000E+00  3.931074E-01  1.420855E-07 -9.289349E-09  3.931074E-01                                                                                                                                                                                                                                                                                                                                                                                                                                                                                              
  7.800000E+02  1.250000E+02 -4.725000E+03  6.715279E-07  1.624912E-14 -1.574182E-14  6.715279E-07  3.509785E-09  8.499554E-17 -8.234196E-17  3.509785E-09  0.000000E+00  0.000000E+00  0.000000E+00  0.000000E+00  0.000000E+00  0.000000E+00  0.000000E+00  0.000000E+00  3.931075E-01  9.448856E-09 -9.153859E-09  3.931075E-01                                                                                                                                                                                                                                                                                                                                                                                                                                                                                              
  8.000000E+02  1.250000E+02 -4.725000E+03  6.715279E-07 -2.094381E-13 -1.535206E-14  6.715279E-07  3.509785E-09 -1.095524E-15 -8.030320E-17  3.509785E-09  0.000000E+00  0.000000E+00  0.000000E+00  0.000000E+00  0.000000E+00  0.000000E+00  0.000000E+00  0.000000E+00  3.931075E-01 -1.217882E-07 -8.927213E-09  3.931075E-01                                                                                                                                                                                                                                                                                                                                                                                                                                                                                              
  9.350000E+02  1.250000E+02 -4.725000E+03  6.715259E-07 -2.792268E-13 -1.276079E-14  6.715259E-07  3.509774E-09 -1.460573E-15 -6.674888E-17  3.509774E-09  0.000000E+00  0.000000E+00  0.000000E+00  0.000000E+00  0.000000E+00  0.000000E+00  0.000000E+00  0.000000E+00  3.931063E-01 -1.623702E-07 -7.420395E-09  3.931063E-01                                                                                                                                                                                                                                                                                                                                                                                                                                                                                              
  1.185000E+03  1.250000E+02 -4.725000E+03  6.715238E-07 -1.763764E-13 -8.744432E-15  6.715238E-07  3.509763E-09 -9.225856E-16 -4.574019E-17  3.509763E-09  0.000000E+00  0.000000E+00  0.000000E+00  0.000000E+00  0.000000E+00  0.000000E+00  0.000000E+00  0.000000E+00  3.931051E-01 -1.025628E-07 -5.084883E-09  3.931051E-01                                                                                                                                                                                                                                                                                                                                                                                                                                                                                              