Title="TOUGHREACT V3.30-OMP flowvector.tec: Liq & Gas Fluxes (kg/s/m^2), Pore Velocities (m/s), & Heat Fluxes (J/s/m2)"                                                                                                                                                                                                                                                                                                                                                                                                                                                                                                                                                                                                                                                                                                         
Variables= "X(m)"     "Y(m)"      "Z(m)"     "FluxLiq"   "FluxLiq_X"   "FluxLiq_Y"   "FluxLiq_Z"   "PorVelLiq"  "PorVelLiqX"  "PorVelLiqY"  "PorVelLiqZ"     "FluxGas"   "FluxGas_X"   "FluxGas_Y"   "FluxGas_Z"   "PorVelGas"  "PorVelGasX"  "PorVelGasY"  "PorVelGasZ"    "HeatFlux"  "HeatFlux_X"  "HeatFlux_Y"  "HeatFlux_Z"                                                                                                                                                                                                                                                                                                                                                                                                                                                                                                
Zone T= "3.15569000E+08 sec" I=     9 J=    10 K=    23 F=Point
  1.250000E+02  1.250000E+02 -5.425000E+03  2.650268E-08  1.756750E-11  7.216611E-11 -2.650257E-08  1.399407E-10  9.295081E-14  3.818357E-13 -1.399401E-10  0.000000E+00  0.000000E+00  0.000000E+00  0.000000E+00  0.000000E+00  0.000000E+00  0.000000E+00  0.000000E+00  1.685328E-02  1.155635E-05  4.747272E-05 -1.685321E-02                                                                                                                                                                                                                                                                                                                                                                                                                                                                                              
  3.750000E+02  1.250000E+02 -5.425000E+03  2.649464E-08  2.941351E-11  1.003702E-10 -2.649444E-08  1.398982E-10  1.556289E-13  5.310657E-13 -1.398972E-10  0.000000E+00  0.000000E+00  0.000000E+00  0.000000E+00  0.000000E+00  0.000000E+00  0.000000E+00  0.000000E+00  1.684817E-02  1.934896E-05  6.602612E-05 -1.684803E-02                                                                                                                                                                                                                                                                                                                                                                                                                                                                                              
  6.250000E+02  1.250000E+02 -5.425000E+03  2.648670E-08 -8.176718E-12  1.230579E-10 -2.648641E-08  1.398563E-10 -4.326357E-14  6.511074E-13 -1.398548E-10  0.000000E+00  0.000000E+00  0.000000E+00  0.000000E+00  0.000000E+00  0.000000E+00  0.000000E+00  0.000000E+00  1.684312E-02 -5.378855E-06  8.095060E-05 -1.684293E-02                                                                                                                                                                                                                                                                                                                                                                                                                                                                                              
  7.600000E+02  1.250000E+02 -5.425000E+03  2.649126E-08 -4.173653E-11  1.062884E-10 -2.649101E-08  1.398804E-10 -2.208308E-13  5.623790E-13 -1.398791E-10  0.000000E+00  0.000000E+00  0.000000E+00  0.000000E+00  0.000000E+00  0.000000E+00  0.000000E+00  0.000000E+00  1.684602E-02 -2.745535E-05  6.991922E-05 -1.684585E-02                                                                                                                                                                                                                                                                                                                                                                                                                                                                                              
  7.800000E+02  1.250000E+02 -5.425000E+03  2.649199E-08 -4.497918E-11  1.035949E-10 -2.649175E-08  1.398843E-10 -2.379879E-13  5.481276E-13 -1.398830E-10  0.000000E+00  0.000000E+00  0.000000E+00  0.000000E+00  0.000000E+00  0.000000E+00  0.000000E+00  0.000000E+00  1.684649E-02 -2.958846E-05  6.814738E-05 -1.684633E-02                                                                                                                                                                                                                                                                                                                                                                                                                                                                                              
  8.000000E+02  1.250000E+02 -5.425000E+03  2.649278E-08 -4.793238E-11  1.007139E-10 -2.649255E-08  1.398884E-10 -2.536134E-13  5.328840E-13 -1.398872E-10  0.000000E+00  0.000000E+00  0.000000E+00  0.000000E+00  0.000000E+00  0.000000E+00  0.000000E+00  0.000000E+00  1.684699E-02 -3.153115E-05  6.625218E-05 -1.684683E-02                                                                                                                                                                                                                                                                                                                                                                                                                                                                                              
  9.350000E+02  1.250000E+02 -5.425000E+03  2.649838E-08 -5.346857E-11  8.015565E-11 -2.649821E-08  1.399180E-10 -2.829058E-13  4.241089E-13 -1.399171E-10  0.000000E+00  0.000000E+00  0.000000E+00  0.000000E+00  0.000000E+00  0.000000E+00  0.000000E+00  0.000000E+00  1.685055E-02 -3.517300E-05  5.272844E-05 -1.685043E-02                                                                                                                                                                                                                                                                                                                                                                                                                                                                                              
  1.185000E+03  1.250000E+02 -5.425000E+03  2.650741E-08 -4.517605E-11  4.152092E-11 -2.650733E-08  1.399656E-10 -2.390295E-13  2.196899E-13 -1.399652E-10  0.000000E+00  0.000000E+00  0.000000E+00  0.000000E+00  0.000000E+00  0.000000E+00  0.000000E+00  0.000000E+00  1.685628E-02 -2.971796E-05  2.731352E-05 -1.685623E-02                                                                                                                                                                                                                                                                                                                                                                                                                                                                                              
  1.435000E+03  1.250000E+02 -5.425000E+03  2.651134E-08 -1.637447E-11  2.182615E-11 -2.651132E-08  1.399864E-10 -8.663840E-14  1.154836E-13 -1.399863E-10  0.000000E+00  0.000000E+00  0.000000E+00  0.000000E+00  0.000000E+00  0.000000E+00  0.000000E+00  0.000000E+00  1.685878E-02 -1.077155E-05  1.435780E-05 -1.685877E-02                                                                                                                                                                                                                                                                                                                                                                                                                                                                                              
  1.250000E+02  1.250000E+02 -5.225000E+03  1.169543E-07  2.357613E-11  8.934128E-11 -1.169543E-07  6.154683E-10  1.242791E-13  4.709533E-13 -6.154681E-10  0.000000E+00  0.000000E+00  0.000000E+00  0.000000E+00  0.000000E+00  0.000000E+00  0.000000E+00  0.000000E+00  7.192860E-02  1.499226E-05  5.681286E-05 -7.192857E-02                                                                                                                                                                                                                                                                                                                                                                                                                                                                                              
  3.750000E+02  1.250000E+02 -5.225000E+03  1.169290E-07  4.150615E-11  1.339255E-10 -1.169290E-07  6.153351E-10  2.187954E-13  7.059747E-13 -6.153347E-10  0.000000E+00  0.000000E+00  0.000000E+00  0.000000E+00  0.000000E+00  0.000000E+00  0.000000E+00  0.000000E+00  7.191297E-02  2.639411E-05  8.516435E-05 -7.191292E-02                                                                                                                                                                                                                                                                                                                                                                                                                                                                                              
  6.250000E+02  1.250000E+02 -5.225000E+03  1.169007E-07 -8.334382E-12  1.755578E-10 -1.169005E-07  6.151858E-10 -4.393384E-14  9.254351E-13 -6.151851E-10  0.000000E+00  0.000000E+00  0.000000E+00  0.000000E+00  0.000000E+00  0.000000E+00  0.000000E+00  0.000000E+00  7.189547E-02 -5.299902E-06  1.116387E-04 -7.189538E-02                                                                                                                                                                                                                                                                                                                                                                                                                                                                                              
  7.600000E+02  1.250000E+02 -5.225000E+03  1.169158E-07 -5.477094E-11  1.482703E-10 -1.169157E-07  6.152653E-10 -2.887194E-13  7.815914E-13 -6.152647E-10  0.000000E+00  0.000000E+00  0.000000E+00  0.000000E+00  0.000000E+00  0.000000E+00  0.000000E+00  0.000000E+00  7.190479E-02 -3.482930E-05  9.428628E-05 -7.190472E-02                                                                                                                                                                                                                                                                                                                                                                                                                                                                                              
  7.800000E+02  1.250000E+02 -5.225000E+03  1.169182E-07 -5.904671E-11  1.438928E-10 -1.169181E-07  6.152781E-10 -3.112586E-13  7.585160E-13 -6.152775E-10  0.000000E+00  0.000000E+00  0.000000E+00  0.000000E+00  0.000000E+00  0.000000E+00  0.000000E+00  0.000000E+00  7.190629E-02 -3.754829E-05  9.150260E-05 -7.190622E-02                                                                                                                                                                                                                                                                                                                                                                                                                                                                                              
  8.000000E+02  1.250000E+02 -5.225000E+03  1.169208E-07 -6.289143E-11  1.392207E-10 -1.169207E-07  6.152917E-10 -3.315257E-13  7.338877E-13 -6.152912E-10  0.000000E+00  0.000000E+00  0.000000E+00  0.000000E+00  0.000000E+00  0.000000E+00  0.000000E+00  0.000000E+00  7.190790E-02 -3.999318E-05  8.853160E-05 -7.190783E-02                                                                                                                                                                                                                                                                                                                                                                                                                                                                                              
  9.350000E+02  1.250000E+02 -5.225000E+03  1.169393E-07 -6.762677E-11  1.059808E-10 -1.169392E-07  6.153890E-10 -3.564875E-13  5.586667E-13 -6.153886E-10  0.000000E+00  0.000000E+00  0.000000E+00  0.000000E+00  0.000000E+00  0.000000E+00  0.000000E+00  0.000000E+00  7.191931E-02 -4.300442E-05  6.739405E-05 -7.191926E-02                                                                                                                                                                                                                                                                                                                                                                                                                                                                                              
  1.185000E+03  1.250000E+02 -5.225000E+03  1.169655E-07 -5.437065E-11  5.084843E-11 -1.169655E-07  6.155271E-10 -2.866092E-13  2.680422E-13 -6.155270E-10  0.000000E+00  0.000000E+00  0.000000E+00  0.000000E+00  0.000000E+00  0.000000E+00  0.000000E+00  0.000000E+00  7.193555E-02 -3.457475E-05  3.233494E-05 -7.193553E-02                                                                                                                                                                                                                                                                                                                                                                                                                                                                                              
  1.435000E+03  1.250000E+02 -5.225000E+03  1.169760E-07 -1.909514E-11  2.494468E-11 -1.169760E-07  6.155819E-10 -1.006580E-13  1.314933E-13 -6.155819E-10  0.000000E+00  0.000000E+00  0.000000E+00  0.000000E+00  0.000000E+00  0.000000E+00  0.000000E+00  0.000000E+00  7.194200E-02 -1.214276E-05  1.586253E-05 -7.194199E-02                                                                                                                                                                                                                                                                                                                                                                                                                                                                                              
  1.250000E+02  1.250000E+02 -4.975000E+03  2.948783E-07  3.992702E-11  1.312785E-10 -2.948783E-07  1.544799E-09  2.094811E-13  6.887658E-13 -1.544799E-09  0.000000E+00  0.000000E+00  0.000000E+00  0.000000E+00  0.000000E+00  0.000000E+00  0.000000E+00  0.000000E+00  1.740465E-01  2.431125E-05  7.993446E-05 -1.740464E-01                                                                                                                                                                                                                                                                                                                                                                                                                                                                                              
  3.750000E+02  1.250000E+02 -4.975000E+03  2.948614E-07  7.762070E-11  2.310856E-10 -2.948613E-07  1.544711E-09  4.072448E-13  1.212414E-12 -1.544710E-09  0.000000E+00  0.000000E+00  0.000000E+00  0.000000E+00  0.000000E+00  0.000000E+00  0.000000E+00  0.000000E+00  1.740362E-01  4.726265E-05  1.407062E-04 -1.740361E-01                                                                                                                                                                                                                                                                                                                                                                                                                                                                                              
  6.250000E+02  1.250000E+02 -4.975000E+03  2.948278E-07 -7.109921E-12  3.521568E-10 -2.948276E-07  1.544534E-09 -3.730293E-14  1.847627E-12 -1.544533E-09  0.000000E+00  0.000000E+00  0.000000E+00  0.000000E+00  0.000000E+00  0.000000E+00  0.000000E+00  0.000000E+00  1.740161E-01 -4.329175E-06  2.144256E-04 -1.740159E-01                                                                                                                                                                                                                                                                                                                                                                                                                                                                                              
  7.600000E+02  1.250000E+02 -4.975000E+03  2.948411E-07 -9.344682E-11  2.835053E-10 -2.948409E-07  1.544604E-09 -4.902782E-13  1.487439E-12 -1.544603E-09  0.000000E+00  0.000000E+00  0.000000E+00  0.000000E+00  0.000000E+00  0.000000E+00  0.000000E+00  0.000000E+00  1.740241E-01 -5.689905E-05  1.726242E-04 -1.740240E-01                                                                                                                                                                                                                                                                                                                                                                                                                                                                                              
  7.800000E+02  1.250000E+02 -4.975000E+03  2.948432E-07 -1.006860E-10  2.725431E-10 -2.948431E-07  1.544615E-09 -5.282590E-13  1.429925E-12 -1.544615E-09  0.000000E+00  0.000000E+00  0.000000E+00  0.000000E+00  0.000000E+00  0.000000E+00  0.000000E+00  0.000000E+00  1.740254E-01 -6.130690E-05  1.659494E-04 -1.740253E-01                                                                                                                                                                                                                                                                                                                                                                                                                                                                                              
  8.000000E+02  1.250000E+02 -4.975000E+03  2.948455E-07 -1.070212E-10  2.609146E-10 -2.948454E-07  1.544627E-09 -5.614975E-13  1.368915E-12 -1.544627E-09  0.000000E+00  0.000000E+00  0.000000E+00  0.000000E+00  0.000000E+00  0.000000E+00  0.000000E+00  0.000000E+00  1.740268E-01 -6.516438E-05  1.588689E-04 -1.740267E-01                                                                                                                                                                                                                                                                                                                                                                                                                                                                                              
  9.350000E+02  1.250000E+02 -4.975000E+03  2.948617E-07 -1.061268E-10  1.787820E-10 -2.948617E-07  1.544712E-09 -5.568048E-13  9.379976E-13 -1.544712E-09  0.000000E+00  0.000000E+00  0.000000E+00  0.000000E+00  0.000000E+00  0.000000E+00  0.000000E+00  0.000000E+00  1.740365E-01 -6.461979E-05  1.088590E-04 -1.740365E-01                                                                                                                                                                                                                                                                                                                                                                                                                                                                                              
  1.185000E+03  1.250000E+02 -4.975000E+03  2.948718E-07 -7.597849E-11  7.307331E-11 -2.948718E-07  1.544765E-09 -3.986287E-13  3.833864E-13 -1.544765E-09  0.000000E+00  0.000000E+00  0.000000E+00  0.000000E+00  0.000000E+00  0.000000E+00  0.000000E+00  0.000000E+00  1.740429E-01 -4.626272E-05  4.449378E-05 -1.740428E-01                                                                                                                                                                                                                                                                                                                                                                                                                                                                                              
  1.435000E+03  1.250000E+02 -4.975000E+03  2.948718E-07 -2.483016E-11  3.090725E-11 -2.948718E-07  1.544765E-09 -1.302739E-13  1.621579E-13 -1.544765E-09  0.000000E+00  0.000000E+00  0.000000E+00  0.000000E+00  0.000000E+00  0.000000E+00  0.000000E+00  0.000000E+00  1.740430E-01 -1.511890E-05  1.881919E-05 -1.740430E-01                                                                                                                                                                                                                                                                                                                                                                                                                                                                                              
  1.250000E+02  1.250000E+02 -4.725000E+03  5.902208E-07  3.803394E-11  1.053629E-10 -5.902208E-07  3.078521E-09  1.985417E-13  5.500066E-13 -3.078521E-09  0.000000E+00  0.000000E+00  0.000000E+00  0.000000E+00  0.000000E+00  0.000000E+00  0.000000E+00  0.000000E+00  3.362524E-01  2.213479E-05  6.131852E-05 -3.362524E-01                                                                                                                                                                                                                                                                                                                                                                                                                                                                                              
  3.750000E+02  1.250000E+02 -4.725000E+03  5.902918E-07  8.756141E-11  2.403024E-10 -5.902917E-07  3.078891E-09  4.570809E-13  1.254407E-12 -3.078890E-09  0.000000E+00  0.000000E+00  0.000000E+00  0.000000E+00  0.000000E+00  0.000000E+00  0.000000E+00  0.000000E+00  3.362923E-01  5.095852E-05  1.398499E-04 -3.362923E-01                                                                                                                                                                                                                                                                                                                                                                                                                                                                                              
  6.250000E+02  1.250000E+02 -4.725000E+03  5.903651E-07  1.311155E-12  4.967474E-10 -5.903649E-07  3.079271E-09  6.844363E-15  2.593081E-12 -3.079270E-09  0.000000E+00  0.000000E+00  0.000000E+00  0.000000E+00  0.000000E+00  0.000000E+00  0.000000E+00  0.000000E+00  3.363309E-01  7.630601E-07  2.890944E-04 -3.363307E-01                                                                                                                                                                                                                                                                                                                                                                                                                                                                                              
  7.600000E+02  1.250000E+02 -4.725000E+03  5.903131E-07 -1.007346E-10  3.675049E-10 -5.903130E-07  3.079001E-09 -5.258467E-13  1.918420E-12 -3.079001E-09  0.000000E+00  0.000000E+00  0.000000E+00  0.000000E+00  0.000000E+00  0.000000E+00  0.000000E+00  0.000000E+00  3.363028E-01 -5.862500E-05  2.138785E-04 -3.363028E-01                                                                                                                                                                                                                                                                                                                                                                                                                                                                                              
  7.800000E+02  1.250000E+02 -4.725000E+03  5.903063E-07 -1.086467E-10  3.467307E-10 -5.903062E-07  3.078966E-09 -5.671489E-13  1.809976E-12 -3.078966E-09  0.000000E+00  0.000000E+00  0.000000E+00  0.000000E+00  0.000000E+00  0.000000E+00  0.000000E+00  0.000000E+00  3.363000E-01 -6.322965E-05  2.017885E-04 -3.363000E-01                                                                                                                                                                                                                                                                                                                                                                                                                                                                                              
  8.000000E+02  1.250000E+02 -4.725000E+03  5.902988E-07 -1.151951E-10  3.250737E-10 -5.902987E-07  3.078927E-09 -6.013321E-13  1.696924E-12 -3.078927E-09  0.000000E+00  0.000000E+00  0.000000E+00  0.000000E+00  0.000000E+00  0.000000E+00  0.000000E+00  0.000000E+00  3.362962E-01 -6.704063E-05  1.891847E-04 -3.362961E-01                                                                                                                                                                                                                                                                                                                                                                                                                                                                                              
  9.350000E+02  1.250000E+02 -4.725000E+03  5.902457E-07 -1.010932E-10  1.779821E-10 -5.902457E-07  3.078650E-09 -5.277185E-13  9.290878E-13 -3.078650E-09  0.000000E+00  0.000000E+00  0.000000E+00  0.000000E+00  0.000000E+00  0.000000E+00  0.000000E+00  0.000000E+00  3.362663E-01 -5.883369E-05  1.035811E-04 -3.362663E-01                                                                                                                                                                                                                                                                                                                                                                                                                                                                                              
  1.185000E+03  1.250000E+02 -4.725000E+03  5.901635E-07 -5.944398E-11  5.670862E-11 -5.901635E-07  3.078222E-09 -3.103046E-13  2.960257E-13 -3.078222E-09  0.000000E+00  0.000000E+00  0.000000E+00  0.000000E+00  0.000000E+00  0.000000E+00  0.000000E+00  0.000000E+00  3.362199E-01 -3.459490E-05  3.300299E-05 -3.362199E-01                                                                                                                                                                                                                                                                                                                                                                                                                                                                                              