Title="TOUGHREACT V3.30-OMP flowvector.tec: Liq & Gas Fluxes (kg/s/m^2), Pore Velocities (m/s), & Heat Fluxes (J/s/m2)"                                                                                                                                                                                                                                                                                                                                                                                                                                                                                                                                                                                                                                                                                                         
Variables= "X(m)"     "Y(m)"      "Z(m)"     "FluxLiq"   "FluxLiq_X"   "FluxLiq_Y"   "FluxLiq_Z"   "PorVelLiq"  "PorVelLiqX"  "PorVelLiqY"  "PorVelLiqZ"     "FluxGas"   "FluxGas_X"   "FluxGas_Y"   "FluxGas_Z"   "PorVelGas"  "PorVelGasX"  "PorVelGasY"  "PorVelGasZ"    "HeatFlux"  "HeatFlux_X"  "HeatFlux_Y"  "HeatFlux_Z"                                                                                                                                                                                                                                                                                                                                                                                                                                                                                                
Zone T= "1.00000000E+09 sec" I=     9 J=    10 K=    23 F=Point
  1.250000E+02  1.250000E+02 -5.425000E+03  8.776933E-08  3.022856E-10  2.575366E-09 -8.773102E-08  4.618675E-10  1.594348E-12  1.358329E-11 -4.616650E-10  0.000000E+00  0.000000E+00  0.000000E+00  0.000000E+00  0.000000E+00  0.000000E+00  0.000000E+00  0.000000E+00  5.588168E-02  1.992487E-04  1.697528E-03 -5.585554E-02                                                                                                                                                                                                                                                                                                                                                                                                                                                                                              
  3.750000E+02  1.250000E+02 -5.425000E+03  8.738440E-08  1.125086E-10  2.772815E-09 -8.734032E-08  4.598431E-10  5.934048E-13  1.462472E-11 -4.596101E-10  0.000000E+00  0.000000E+00  0.000000E+00  0.000000E+00  0.000000E+00  0.000000E+00  0.000000E+00  0.000000E+00  5.563683E-02  7.415894E-05  1.827674E-03 -5.560675E-02                                                                                                                                                                                                                                                                                                                                                                                                                                                                                              
  6.250000E+02  1.250000E+02 -5.425000E+03  8.702288E-08 -1.540188E-09  2.737987E-09 -8.696616E-08  4.579412E-10 -8.123414E-12  1.444101E-11 -4.576413E-10  0.000000E+00  0.000000E+00  0.000000E+00  0.000000E+00  0.000000E+00  0.000000E+00  0.000000E+00  0.000000E+00  5.540725E-02 -1.015201E-03  1.804718E-03 -5.536854E-02                                                                                                                                                                                                                                                                                                                                                                                                                                                                                              
  7.600000E+02  1.250000E+02 -5.425000E+03  8.721014E-08 -2.763880E-09  2.453051E-09 -8.713181E-08  4.589257E-10 -1.457753E-11  1.293813E-11 -4.585116E-10  0.000000E+00  0.000000E+00  0.000000E+00  0.000000E+00  0.000000E+00  0.000000E+00  0.000000E+00  0.000000E+00  5.552752E-02 -1.821786E-03  1.616906E-03 -5.547406E-02                                                                                                                                                                                                                                                                                                                                                                                                                                                                                              
  7.800000E+02  1.250000E+02 -5.425000E+03  8.724010E-08 -2.885158E-09  2.408880E-09 -8.715910E-08  4.590831E-10 -1.521718E-11  1.270516E-11 -4.586549E-10  0.000000E+00  0.000000E+00  0.000000E+00  0.000000E+00  0.000000E+00  0.000000E+00  0.000000E+00  0.000000E+00  5.554672E-02 -1.901726E-03  1.587792E-03 -5.549145E-02                                                                                                                                                                                                                                                                                                                                                                                                                                                                                              
  8.000000E+02  1.250000E+02 -5.425000E+03  8.727233E-08 -2.996380E-09  2.362943E-09 -8.718886E-08  4.592525E-10 -1.580377E-11  1.246286E-11 -4.588113E-10  0.000000E+00  0.000000E+00  0.000000E+00  0.000000E+00  0.000000E+00  0.000000E+00  0.000000E+00  0.000000E+00  5.556736E-02 -1.975038E-03  1.557513E-03 -5.551041E-02                                                                                                                                                                                                                                                                                                                                                                                                                                                                                              
  9.350000E+02  1.250000E+02 -5.425000E+03  8.748848E-08 -3.243562E-09  2.042282E-09 -8.740448E-08  4.603883E-10 -1.710740E-11  1.077157E-11 -4.599443E-10  0.000000E+00  0.000000E+00  0.000000E+00  0.000000E+00  0.000000E+00  0.000000E+00  0.000000E+00  0.000000E+00  5.570508E-02 -2.137970E-03  1.346153E-03 -5.564775E-02                                                                                                                                                                                                                                                                                                                                                                                                                                                                                              
  1.185000E+03  1.250000E+02 -5.425000E+03  8.787090E-08 -2.783527E-09  1.423451E-09 -8.781526E-08  4.623965E-10 -1.468099E-11  7.507632E-12 -4.621024E-10  0.000000E+00  0.000000E+00  0.000000E+00  0.000000E+00  0.000000E+00  0.000000E+00  0.000000E+00  0.000000E+00  5.594740E-02 -1.834744E-03  9.382583E-04 -5.590944E-02                                                                                                                                                                                                                                                                                                                                                                                                                                                                                              
  1.435000E+03  1.250000E+02 -5.425000E+03  8.802896E-08 -1.064656E-09  1.055619E-09 -8.801620E-08  4.632252E-10 -5.615235E-12  5.567575E-12 -4.631577E-10  0.000000E+00  0.000000E+00  0.000000E+00  0.000000E+00  0.000000E+00  0.000000E+00  0.000000E+00  0.000000E+00  5.604617E-02 -7.017617E-04  6.958054E-04 -5.603746E-02                                                                                                                                                                                                                                                                                                                                                                                                                                                                                              
  1.250000E+02  1.250000E+02 -5.225000E+03  3.290584E-07  6.062577E-10  2.987275E-09 -3.290443E-07  1.725242E-09  3.184722E-12  1.569241E-11 -1.725168E-09  0.000000E+00  0.000000E+00  0.000000E+00  0.000000E+00  0.000000E+00  0.000000E+00  0.000000E+00  0.000000E+00  2.030089E-01  3.859849E-04  1.901903E-03 -2.029996E-01                                                                                                                                                                                                                                                                                                                                                                                                                                                                                              
  3.750000E+02  1.250000E+02 -5.225000E+03  3.274769E-07  7.218494E-10  3.431319E-09 -3.274581E-07  1.716961E-09  3.791936E-12  1.802505E-11 -1.716862E-09  0.000000E+00  0.000000E+00  0.000000E+00  0.000000E+00  0.000000E+00  0.000000E+00  0.000000E+00  0.000000E+00  2.020339E-01  4.595784E-04  2.184609E-03 -2.020215E-01                                                                                                                                                                                                                                                                                                                                                                                                                                                                                              
  6.250000E+02  1.250000E+02 -5.225000E+03  3.256721E-07 -1.440349E-09  3.553609E-09 -3.256495E-07  1.707509E-09 -7.566267E-12  1.866747E-11 -1.707390E-09  0.000000E+00  0.000000E+00  0.000000E+00  0.000000E+00  0.000000E+00  0.000000E+00  0.000000E+00  0.000000E+00  2.009232E-01 -9.170246E-04  2.262468E-03 -2.009084E-01                                                                                                                                                                                                                                                                                                                                                                                                                                                                                              
  7.600000E+02  1.250000E+02 -5.225000E+03  3.263778E-07 -3.200558E-09  3.134046E-09 -3.263471E-07  1.711200E-09 -1.681278E-11  1.646340E-11 -1.711039E-09  0.000000E+00  0.000000E+00  0.000000E+00  0.000000E+00  0.000000E+00  0.000000E+00  0.000000E+00  0.000000E+00  2.013587E-01 -2.037694E-03  1.995348E-03 -2.013385E-01                                                                                                                                                                                                                                                                                                                                                                                                                                                                                              
  7.800000E+02  1.250000E+02 -5.225000E+03  3.264952E-07 -3.370516E-09  3.068465E-09 -3.264634E-07  1.711815E-09 -1.770557E-11  1.611890E-11 -1.711647E-09  0.000000E+00  0.000000E+00  0.000000E+00  0.000000E+00  0.000000E+00  0.000000E+00  0.000000E+00  0.000000E+00  2.014311E-01 -2.145901E-03  1.953595E-03 -2.014102E-01                                                                                                                                                                                                                                                                                                                                                                                                                                                                                              
  8.000000E+02  1.250000E+02 -5.225000E+03  3.266240E-07 -3.525056E-09  2.999835E-09 -3.265912E-07  1.712488E-09 -1.851735E-11  1.575837E-11 -1.712316E-09  0.000000E+00  0.000000E+00  0.000000E+00  0.000000E+00  0.000000E+00  0.000000E+00  0.000000E+00  0.000000E+00  2.015106E-01 -2.244294E-03  1.909901E-03 -2.014890E-01                                                                                                                                                                                                                                                                                                                                                                                                                                                                                              
  9.350000E+02  1.250000E+02 -5.225000E+03  3.275491E-07 -3.795926E-09  2.518660E-09 -3.275174E-07  1.717328E-09 -1.994013E-11  1.323067E-11 -1.717161E-09  0.000000E+00  0.000000E+00  0.000000E+00  0.000000E+00  0.000000E+00  0.000000E+00  0.000000E+00  0.000000E+00  2.020808E-01 -2.416753E-03  1.603554E-03 -2.020600E-01                                                                                                                                                                                                                                                                                                                                                                                                                                                                                              
  1.185000E+03  1.250000E+02 -5.225000E+03  3.290475E-07 -3.190694E-09  1.642489E-09 -3.290280E-07  1.725166E-09 -1.676074E-11  8.628023E-12 -1.725063E-09  0.000000E+00  0.000000E+00  0.000000E+00  0.000000E+00  0.000000E+00  0.000000E+00  0.000000E+00  0.000000E+00  2.030058E-01 -2.031424E-03  1.045725E-03 -2.029930E-01                                                                                                                                                                                                                                                                                                                                                                                                                                                                                              
  1.435000E+03  1.250000E+02 -5.225000E+03  3.296814E-07 -1.193926E-09  1.143953E-09 -3.296773E-07  1.728480E-09 -6.271683E-12  6.009173E-12 -1.728458E-09  0.000000E+00  0.000000E+00  0.000000E+00  0.000000E+00  0.000000E+00  0.000000E+00  0.000000E+00  0.000000E+00  2.033975E-01 -7.601393E-04  7.283227E-04 -2.033947E-01                                                                                                                                                                                                                                                                                                                                                                                                                                                                                              
  1.250000E+02  1.250000E+02 -4.975000E+03  6.465409E-07  1.780866E-09  4.304673E-09 -6.465241E-07  3.372718E-09  9.305269E-12  2.249252E-11 -3.372630E-09  0.000000E+00  0.000000E+00  0.000000E+00  0.000000E+00  0.000000E+00  0.000000E+00  0.000000E+00  0.000000E+00  3.834098E-01  1.085908E-03  2.624834E-03 -3.833993E-01                                                                                                                                                                                                                                                                                                                                                                                                                                                                                              
  3.750000E+02  1.250000E+02 -4.975000E+03  6.433088E-07  3.328962E-09  6.038172E-09 -6.432719E-07  3.355897E-09  1.739434E-11  3.155053E-11 -3.355704E-09  0.000000E+00  0.000000E+00  0.000000E+00  0.000000E+00  0.000000E+00  0.000000E+00  0.000000E+00  0.000000E+00  3.814898E-01  2.029878E-03  3.681850E-03 -3.814667E-01                                                                                                                                                                                                                                                                                                                                                                                                                                                                                              
  6.250000E+02  1.250000E+02 -4.975000E+03  6.374030E-07 -9.358270E-10  7.218610E-09 -6.373614E-07  3.325162E-09 -4.889868E-12  3.771878E-11 -3.324945E-09  0.000000E+00  0.000000E+00  0.000000E+00  0.000000E+00  0.000000E+00  0.000000E+00  0.000000E+00  0.000000E+00  3.779929E-01 -5.706320E-04  4.401627E-03 -3.779668E-01                                                                                                                                                                                                                                                                                                                                                                                                                                                                                              
  7.600000E+02  1.250000E+02 -4.975000E+03  6.391018E-07 -5.181318E-09  6.111303E-09 -6.390516E-07  3.333994E-09 -2.707329E-11  3.193268E-11 -3.333731E-09  0.000000E+00  0.000000E+00  0.000000E+00  0.000000E+00  0.000000E+00  0.000000E+00  0.000000E+00  0.000000E+00  3.789982E-01 -3.159373E-03  3.726442E-03 -3.789667E-01                                                                                                                                                                                                                                                                                                                                                                                                                                                                                              
  7.800000E+02  1.250000E+02 -4.975000E+03  6.394493E-07 -5.585533E-09  5.934867E-09 -6.393974E-07  3.335802E-09 -2.918535E-11  3.101075E-11 -3.335530E-09  0.000000E+00  0.000000E+00  0.000000E+00  0.000000E+00  0.000000E+00  0.000000E+00  0.000000E+00  0.000000E+00  3.792057E-01 -3.405849E-03  3.618859E-03 -3.791731E-01                                                                                                                                                                                                                                                                                                                                                                                                                                                                                              
  8.000000E+02  1.250000E+02 -4.975000E+03  6.398914E-07 -5.937642E-09  5.747729E-09 -6.398380E-07  3.338105E-09 -3.102507E-11  3.003288E-11 -3.337826E-09  0.000000E+00  0.000000E+00  0.000000E+00  0.000000E+00  0.000000E+00  0.000000E+00  0.000000E+00  0.000000E+00  3.794766E-01 -3.620557E-03  3.504751E-03 -3.794431E-01                                                                                                                                                                                                                                                                                                                                                                                                                                                                                              
  9.350000E+02  1.250000E+02 -4.975000E+03  6.424937E-07 -6.072590E-09  4.427858E-09 -6.424497E-07  3.351636E-09 -3.172992E-11  2.313617E-11 -3.351406E-09  0.000000E+00  0.000000E+00  0.000000E+00  0.000000E+00  0.000000E+00  0.000000E+00  0.000000E+00  0.000000E+00  3.810149E-01 -3.702856E-03  2.699949E-03 -3.809873E-01                                                                                                                                                                                                                                                                                                                                                                                                                                                                                              
  1.185000E+03  1.250000E+02 -4.975000E+03  6.450469E-07 -4.621097E-09  2.419065E-09 -6.450258E-07  3.364909E-09 -2.414552E-11  1.263979E-11 -3.364798E-09  0.000000E+00  0.000000E+00  0.000000E+00  0.000000E+00  0.000000E+00  0.000000E+00  0.000000E+00  0.000000E+00  3.825375E-01 -2.817794E-03  1.475066E-03 -3.825243E-01                                                                                                                                                                                                                                                                                                                                                                                                                                                                                              
  1.435000E+03  1.250000E+02 -4.975000E+03  6.456414E-07 -1.598011E-09  1.396248E-09 -6.456379E-07  3.367994E-09 -8.349668E-12  7.295451E-12 -3.367976E-09  0.000000E+00  0.000000E+00  0.000000E+00  0.000000E+00  0.000000E+00  0.000000E+00  0.000000E+00  0.000000E+00  3.828968E-01 -9.744163E-04  8.513880E-04 -3.828946E-01                                                                                                                                                                                                                                                                                                                                                                                                                                                                                              
  1.250000E+02  1.250000E+02 -4.725000E+03  9.887004E-07  3.766437E-09  5.034175E-09 -9.886805E-07  5.131556E-09  1.956418E-11  2.614926E-11 -5.131452E-09  0.000000E+00  0.000000E+00  0.000000E+00  0.000000E+00  0.000000E+00  0.000000E+00  0.000000E+00  0.000000E+00  5.651016E-01  2.195994E-03  2.935139E-03 -5.650897E-01                                                                                                                                                                                                                                                                                                                                                                                                                                                                                              
  3.750000E+02  1.250000E+02 -4.725000E+03  9.878247E-07  9.719973E-09  1.112241E-08 -9.877143E-07  5.124996E-09  5.048928E-11  5.777443E-11 -5.124421E-09  0.000000E+00  0.000000E+00  0.000000E+00  0.000000E+00  0.000000E+00  0.000000E+00  0.000000E+00  0.000000E+00  5.601815E-01  5.667098E-03  6.484728E-03 -5.601153E-01                                                                                                                                                                                                                                                                                                                                                                                                                                                                                              
  6.250000E+02  1.250000E+02 -4.725000E+03  9.718487E-07  1.418449E-09  1.778573E-08 -9.716849E-07  5.035487E-09  7.367762E-12  9.238755E-11 -5.034634E-09  0.000000E+00  0.000000E+00  0.000000E+00  0.000000E+00  0.000000E+00  0.000000E+00  0.000000E+00  0.000000E+00  5.361173E-01  8.271749E-04  1.036898E-02 -5.360164E-01                                                                                                                                                                                                                                                                                                                                                                                                                                                                                              
  7.600000E+02  1.250000E+02 -4.725000E+03  9.665066E-07 -1.030511E-08  1.429667E-08 -9.663459E-07  5.007361E-09 -5.352945E-11  7.426293E-11 -5.006524E-09  0.000000E+00  0.000000E+00  0.000000E+00  0.000000E+00  0.000000E+00  0.000000E+00  0.000000E+00  0.000000E+00  5.320712E-01 -6.007853E-03  8.334878E-03 -5.319720E-01                                                                                                                                                                                                                                                                                                                                                                                                                                                                                              
  7.800000E+02  1.250000E+02 -4.725000E+03  9.677876E-07 -1.267099E-08  1.366950E-08 -9.676081E-07  5.014502E-09 -6.581888E-11  7.100508E-11 -5.013567E-09  0.000000E+00  0.000000E+00  0.000000E+00  0.000000E+00  0.000000E+00  0.000000E+00  0.000000E+00  0.000000E+00  5.339524E-01 -7.387369E-03  7.969318E-03 -5.338418E-01                                                                                                                                                                                                                                                                                                                                                                                                                                                                                              
  8.000000E+02  1.250000E+02 -4.725000E+03  9.869543E-07 -1.335295E-08  1.293533E-08 -9.867792E-07  5.119534E-09 -6.936094E-11  6.719206E-11 -5.118623E-09  0.000000E+00  0.000000E+00  0.000000E+00  0.000000E+00  0.000000E+00  0.000000E+00  0.000000E+00  0.000000E+00  5.576388E-01 -7.785156E-03  7.541637E-03 -5.575334E-01                                                                                                                                                                                                                                                                                                                                                                                                                                                                                              
  9.350000E+02  1.250000E+02 -4.725000E+03  9.835562E-07 -1.082872E-08  8.278680E-09 -9.834618E-07  5.102393E-09 -5.624833E-11  4.300270E-11 -5.101902E-09  0.000000E+00  0.000000E+00  0.000000E+00  0.000000E+00  0.000000E+00  0.000000E+00  0.000000E+00  0.000000E+00  5.567441E-01 -6.313543E-03  4.826732E-03 -5.566873E-01                                                                                                                                                                                                                                                                                                                                                                                                                                                                                              
  1.185000E+03  1.250000E+02 -4.725000E+03  9.836487E-07 -6.074183E-09  3.341360E-09 -9.836243E-07  5.105160E-09 -3.155114E-11  1.735607E-11 -5.105033E-09  0.000000E+00  0.000000E+00  0.000000E+00  0.000000E+00  0.000000E+00  0.000000E+00  0.000000E+00  0.000000E+00  5.618415E-01 -3.541520E-03  1.948160E-03 -5.618270E-01                                                                                                                                                                                                                                                                                                                                                                                                                                                                                              