Title="TOUGHREACT V3.30-OMP flowvector.tec: Liq & Gas Fluxes (kg/s/m^2), Pore Velocities (m/s), & Heat Fluxes (J/s/m2)"                                                                                                                                                                                                                                                                                                                                                                                                                                                                                                                                                                                                                                                                                                         
Variables= "X(m)"     "Y(m)"      "Z(m)"     "FluxLiq"   "FluxLiq_X"   "FluxLiq_Y"   "FluxLiq_Z"   "PorVelLiq"  "PorVelLiqX"  "PorVelLiqY"  "PorVelLiqZ"     "FluxGas"   "FluxGas_X"   "FluxGas_Y"   "FluxGas_Z"   "PorVelGas"  "PorVelGasX"  "PorVelGasY"  "PorVelGasZ"    "HeatFlux"  "HeatFlux_X"  "HeatFlux_Y"  "HeatFlux_Z"                                                                                                                                                                                                                                                                                                                                                                                                                                                                                                
Zone T= "1.00000000E+07 sec" I=     9 J=    10 K=    23 F=Point
  1.250000E+02  1.250000E+02 -5.425000E+03  9.219710E-08  1.190796E-16  9.284467E-18  9.219710E-08  4.868546E-10  6.298359E-19  4.910740E-20  4.868546E-10  0.000000E+00  0.000000E+00  0.000000E+00  0.000000E+00  0.000000E+00  0.000000E+00  0.000000E+00  0.000000E+00  6.063140E-02  7.831010E-11  6.105726E-12  6.063140E-02                                                                                                                                                                                                                                                                                                                                                                                                                                                                                              
  3.750000E+02  1.250000E+02 -5.425000E+03  9.219710E-08  1.276560E-16 -2.643653E-16  9.219710E-08  4.868546E-10  6.751981E-19 -1.398281E-18  4.868546E-10  0.000000E+00  0.000000E+00  0.000000E+00  0.000000E+00  0.000000E+00  0.000000E+00  0.000000E+00  0.000000E+00  6.063140E-02  8.395018E-11 -1.738540E-10  6.063140E-02                                                                                                                                                                                                                                                                                                                                                                                                                                                                                              
  6.250000E+02  1.250000E+02 -5.425000E+03  9.219710E-08 -3.579210E-17 -2.636789E-16  9.219710E-08  4.868546E-10 -1.893116E-19 -1.394650E-18  4.868546E-10  0.000000E+00  0.000000E+00  0.000000E+00  0.000000E+00  0.000000E+00  0.000000E+00  0.000000E+00  0.000000E+00  6.063140E-02 -2.353789E-11 -1.734026E-10  6.063140E-02                                                                                                                                                                                                                                                                                                                                                                                                                                                                                              
  7.600000E+02  1.250000E+02 -5.425000E+03  9.219710E-08 -4.319438E-17 -1.736159E-16  9.219710E-08  4.868546E-10 -2.284637E-19 -9.182893E-19  4.868546E-10  0.000000E+00  0.000000E+00  0.000000E+00  0.000000E+00  0.000000E+00  0.000000E+00  0.000000E+00  0.000000E+00  6.063140E-02 -2.840584E-11 -1.141747E-10  6.063140E-02                                                                                                                                                                                                                                                                                                                                                                                                                                                                                              
  7.800000E+02  1.250000E+02 -5.425000E+03  9.219710E-08  5.852466E-17 -1.660583E-16  9.219710E-08  4.868546E-10  3.095486E-19 -8.783155E-19  4.868546E-10  0.000000E+00  0.000000E+00  0.000000E+00  0.000000E+00  0.000000E+00  0.000000E+00  0.000000E+00  0.000000E+00  6.063140E-02  3.848746E-11 -1.092046E-10  6.063140E-02                                                                                                                                                                                                                                                                                                                                                                                                                                                                                              
  8.000000E+02  1.250000E+02 -5.425000E+03  9.219710E-08  1.679239E-16 -1.644471E-16  9.219710E-08  4.868546E-10  8.881830E-19 -8.697934E-19  4.868546E-10  0.000000E+00  0.000000E+00  0.000000E+00  0.000000E+00  0.000000E+00  0.000000E+00  0.000000E+00  0.000000E+00  6.063140E-02  1.104315E-10 -1.081450E-10  6.063140E-02                                                                                                                                                                                                                                                                                                                                                                                                                                                                                              
  9.350000E+02  1.250000E+02 -5.425000E+03  9.219710E-08  1.463456E-16 -1.926184E-16  9.219710E-08  4.868546E-10  7.740513E-19 -1.018797E-18  4.868546E-10  0.000000E+00  0.000000E+00  0.000000E+00  0.000000E+00  0.000000E+00  0.000000E+00  0.000000E+00  0.000000E+00  6.063140E-02  9.624100E-11 -1.266713E-10  6.063140E-02                                                                                                                                                                                                                                                                                                                                                                                                                                                                                              
  1.185000E+03  1.250000E+02 -5.425000E+03  9.219710E-08 -2.001616E-16 -2.247202E-16  9.219710E-08  4.868546E-10 -1.058694E-18 -1.188590E-18  4.868546E-10  0.000000E+00  0.000000E+00  0.000000E+00  0.000000E+00  0.000000E+00  0.000000E+00  0.000000E+00  0.000000E+00  6.063140E-02 -1.316319E-10 -1.477823E-10  6.063140E-02                                                                                                                                                                                                                                                                                                                                                                                                                                                                                              
  1.435000E+03  1.250000E+02 -5.425000E+03  9.219710E-08 -2.359338E-16  1.683487E-17  9.219710E-08  4.868546E-10 -1.247901E-18  8.904300E-20  4.868546E-10  0.000000E+00  0.000000E+00  0.000000E+00  0.000000E+00  0.000000E+00  0.000000E+00  0.000000E+00  0.000000E+00  6.063140E-02 -1.551567E-10  1.107108E-11  6.063140E-02                                                                                                                                                                                                                                                                                                                                                                                                                                                                                              
  1.250000E+02  1.250000E+02 -5.225000E+03  1.961331E-07  6.360056E-16 -4.194002E-16  1.961331E-07  1.033697E-09  3.352889E-18 -2.210991E-18  1.033697E-09  0.000000E+00  0.000000E+00  0.000000E+00  0.000000E+00  0.000000E+00  0.000000E+00  0.000000E+00  0.000000E+00  1.267230E-01  4.044275E-10 -2.666911E-10  1.267230E-01                                                                                                                                                                                                                                                                                                                                                                                                                                                                                              
  3.750000E+02  1.250000E+02 -5.225000E+03  1.961332E-07  1.913264E-15 -5.169166E-16  1.961332E-07  1.033697E-09  1.008633E-17 -2.725076E-18  1.033697E-09  0.000000E+00  0.000000E+00  0.000000E+00  0.000000E+00  0.000000E+00  0.000000E+00  0.000000E+00  0.000000E+00  1.267230E-01  1.216619E-09 -3.287004E-10  1.267230E-01                                                                                                                                                                                                                                                                                                                                                                                                                                                                                              
  6.250000E+02  1.250000E+02 -5.225000E+03  1.961332E-07  1.910050E-15 -7.066105E-16  1.961332E-07  1.033697E-09  1.006939E-17 -3.725103E-18  1.033697E-09  0.000000E+00  0.000000E+00  0.000000E+00  0.000000E+00  0.000000E+00  0.000000E+00  0.000000E+00  0.000000E+00  1.267230E-01  1.214576E-09 -4.493242E-10  1.267230E-01                                                                                                                                                                                                                                                                                                                                                                                                                                                                                              
  7.600000E+02  1.250000E+02 -5.225000E+03  1.961332E-07  1.023363E-15 -5.652673E-16  1.961332E-07  1.033698E-09  5.394955E-18 -2.979971E-18  1.033698E-09  0.000000E+00  0.000000E+00  0.000000E+00  0.000000E+00  0.000000E+00  0.000000E+00  0.000000E+00  0.000000E+00  1.267230E-01  6.507428E-10 -3.594460E-10  1.267230E-01                                                                                                                                                                                                                                                                                                                                                                                                                                                                                              
  7.800000E+02  1.250000E+02 -5.225000E+03  1.961332E-07  5.351034E-16 -5.442636E-16  1.961332E-07  1.033698E-09  2.820953E-18 -2.869244E-18  1.033698E-09  0.000000E+00  0.000000E+00  0.000000E+00  0.000000E+00  0.000000E+00  0.000000E+00  0.000000E+00  0.000000E+00  1.267230E-01  3.402652E-10 -3.460900E-10  1.267230E-01                                                                                                                                                                                                                                                                                                                                                                                                                                                                                              
  8.000000E+02  1.250000E+02 -5.225000E+03  1.961332E-07  3.116217E-17 -5.245805E-16  1.961332E-07  1.033698E-09  1.642804E-19 -2.765479E-18  1.033698E-09  0.000000E+00  0.000000E+00  0.000000E+00  0.000000E+00  0.000000E+00  0.000000E+00  0.000000E+00  0.000000E+00  1.267230E-01  1.981561E-11 -3.335738E-10  1.267230E-01                                                                                                                                                                                                                                                                                                                                                                                                                                                                                              
  9.350000E+02  1.250000E+02 -5.225000E+03  1.961332E-07 -9.654824E-16 -3.815584E-16  1.961332E-07  1.033698E-09 -5.089822E-18 -2.011496E-18  1.033698E-09  0.000000E+00  0.000000E+00  0.000000E+00  0.000000E+00  0.000000E+00  0.000000E+00  0.000000E+00  0.000000E+00  1.267230E-01 -6.139375E-10 -2.426279E-10  1.267230E-01                                                                                                                                                                                                                                                                                                                                                                                                                                                                                              
  1.185000E+03  1.250000E+02 -5.225000E+03  1.961332E-07 -1.341583E-15 -2.797851E-16  1.961332E-07  1.033697E-09 -7.072548E-18 -1.474969E-18  1.033697E-09  0.000000E+00  0.000000E+00  0.000000E+00  0.000000E+00  0.000000E+00  0.000000E+00  0.000000E+00  0.000000E+00  1.267230E-01 -8.530951E-10 -1.779117E-10  1.267230E-01                                                                                                                                                                                                                                                                                                                                                                                                                                                                                              
  1.435000E+03  1.250000E+02 -5.225000E+03  1.961332E-07 -4.894712E-16 -1.765789E-16  1.961332E-07  1.033697E-09 -2.580390E-18 -9.308869E-19  1.033697E-09  0.000000E+00  0.000000E+00  0.000000E+00  0.000000E+00  0.000000E+00  0.000000E+00  0.000000E+00  0.000000E+00  1.267230E-01 -3.112483E-10 -1.122842E-10  1.267230E-01                                                                                                                                                                                                                                                                                                                                                                                                                                                                                              
  1.250000E+02  1.250000E+02 -4.975000E+03  2.254010E-07  1.170210E-14 -7.393412E-15  2.254010E-07  1.183421E-09  6.144693E-17 -3.882230E-17  1.183421E-09  0.000000E+00  0.000000E+00  0.000000E+00  0.000000E+00  0.000000E+00  0.000000E+00  0.000000E+00  0.000000E+00  1.400269E-01  7.123038E-09 -4.500350E-09  1.400269E-01                                                                                                                                                                                                                                                                                                                                                                                                                                                                                              
  3.750000E+02  1.250000E+02 -4.975000E+03  2.254012E-07  3.486826E-14 -8.873785E-15  2.254012E-07  1.183421E-09  1.830908E-16 -4.659564E-17  1.183421E-09  0.000000E+00  0.000000E+00  0.000000E+00  0.000000E+00  0.000000E+00  0.000000E+00  0.000000E+00  0.000000E+00  1.400270E-01  2.122422E-08 -5.401450E-09  1.400270E-01                                                                                                                                                                                                                                                                                                                                                                                                                                                                                              
  6.250000E+02  1.250000E+02 -4.975000E+03  2.254015E-07  3.831904E-14 -1.155386E-14  2.254015E-07  1.183423E-09  2.012106E-16 -6.066854E-17  1.183423E-09  0.000000E+00  0.000000E+00  0.000000E+00  0.000000E+00  0.000000E+00  0.000000E+00  0.000000E+00  0.000000E+00  1.400272E-01  2.332470E-08 -7.032806E-09  1.400272E-01                                                                                                                                                                                                                                                                                                                                                                                                                                                                                              
  7.600000E+02  1.250000E+02 -4.975000E+03  2.254017E-07  2.369122E-14 -9.680511E-15  2.254017E-07  1.183424E-09  1.244010E-16 -5.083170E-17  1.183424E-09  0.000000E+00  0.000000E+00  0.000000E+00  0.000000E+00  0.000000E+00  0.000000E+00  0.000000E+00  0.000000E+00  1.400274E-01  1.442078E-08 -5.892502E-09  1.400274E-01                                                                                                                                                                                                                                                                                                                                                                                                                                                                                              
  7.800000E+02  1.250000E+02 -4.975000E+03  2.254017E-07  1.016503E-14 -9.397563E-15  2.254017E-07  1.183424E-09  5.337589E-17 -4.934596E-17  1.183424E-09  0.000000E+00  0.000000E+00  0.000000E+00  0.000000E+00  0.000000E+00  0.000000E+00  0.000000E+00  0.000000E+00  1.400274E-01  6.187428E-09 -5.720271E-09  1.400274E-01                                                                                                                                                                                                                                                                                                                                                                                                                                                                                              
  8.000000E+02  1.250000E+02 -4.975000E+03  2.254017E-07 -3.373042E-15 -9.113572E-15  2.254017E-07  1.183424E-09 -1.771161E-17 -4.785474E-17  1.183424E-09  0.000000E+00  0.000000E+00  0.000000E+00  0.000000E+00  0.000000E+00  0.000000E+00  0.000000E+00  0.000000E+00  1.400274E-01 -2.053162E-09 -5.547407E-09  1.400274E-01                                                                                                                                                                                                                                                                                                                                                                                                                                                                                              
  9.350000E+02  1.250000E+02 -4.975000E+03  2.254016E-07 -2.067899E-14 -7.204198E-15  2.254016E-07  1.183424E-09 -1.085840E-16 -3.782875E-17  1.183424E-09  0.000000E+00  0.000000E+00  0.000000E+00  0.000000E+00  0.000000E+00  0.000000E+00  0.000000E+00  0.000000E+00  1.400273E-01 -1.258725E-08 -4.385176E-09  1.400273E-01                                                                                                                                                                                                                                                                                                                                                                                                                                                                                              
  1.185000E+03  1.250000E+02 -4.975000E+03  2.254014E-07 -2.359014E-14 -4.805417E-15  2.254014E-07  1.183423E-09 -1.238702E-16 -2.523292E-17  1.183423E-09  0.000000E+00  0.000000E+00  0.000000E+00  0.000000E+00  0.000000E+00  0.000000E+00  0.000000E+00  0.000000E+00  1.400272E-01 -1.435926E-08 -2.925045E-09  1.400272E-01                                                                                                                                                                                                                                                                                                                                                                                                                                                                                              
  1.435000E+03  1.250000E+02 -4.975000E+03  2.254013E-07 -7.910889E-15 -3.600001E-15  2.254013E-07  1.183422E-09 -4.153954E-17 -1.890336E-17  1.183422E-09  0.000000E+00  0.000000E+00  0.000000E+00  0.000000E+00  0.000000E+00  0.000000E+00  0.000000E+00  0.000000E+00  1.400271E-01 -4.815337E-09 -2.191311E-09  1.400271E-01                                                                                                                                                                                                                                                                                                                                                                                                                                                                                              
  1.250000E+02  1.250000E+02 -4.725000E+03  4.365321E-07  1.586280E-13 -1.165971E-13  4.365321E-07  2.282628E-09  8.298155E-16 -6.099432E-16  2.282628E-09  0.000000E+00  0.000000E+00  0.000000E+00  0.000000E+00  0.000000E+00  0.000000E+00  0.000000E+00  0.000000E+00  2.571391E-01  9.223823E-08 -6.779831E-08  2.571391E-01                                                                                                                                                                                                                                                                                                                                                                                                                                                                                              
  3.750000E+02  1.250000E+02 -4.725000E+03  4.365333E-07  4.854546E-13 -1.363934E-13  4.365333E-07  2.282634E-09  2.539513E-15 -7.135022E-16  2.282634E-09  0.000000E+00  0.000000E+00  0.000000E+00  0.000000E+00  0.000000E+00  0.000000E+00  0.000000E+00  0.000000E+00  2.571399E-01  2.822798E-07 -7.930941E-08  2.571399E-01                                                                                                                                                                                                                                                                                                                                                                                                                                                                                              
  6.250000E+02  1.250000E+02 -4.725000E+03  4.365360E-07  6.234509E-13 -1.628076E-13  4.365360E-07  2.282649E-09  3.261400E-15 -8.516798E-16  2.282649E-09  0.000000E+00  0.000000E+00  0.000000E+00  0.000000E+00  0.000000E+00  0.000000E+00  0.000000E+00  0.000000E+00  2.571414E-01  3.625212E-07 -9.466857E-08  2.571414E-01                                                                                                                                                                                                                                                                                                                                                                                                                                                                                              
  7.600000E+02  1.250000E+02 -4.725000E+03  4.365386E-07  4.500210E-13 -1.408707E-13  4.365386E-07  2.282662E-09  2.354152E-15 -7.369234E-16  2.282662E-09  0.000000E+00  0.000000E+00  0.000000E+00  0.000000E+00  0.000000E+00  0.000000E+00  0.000000E+00  0.000000E+00  2.571430E-01  2.616760E-07 -8.191280E-08  2.571430E-01                                                                                                                                                                                                                                                                                                                                                                                                                                                                                              
  7.800000E+02  1.250000E+02 -4.725000E+03  4.365388E-07  1.588636E-13 -1.375466E-13  4.365388E-07  2.282663E-09  8.310482E-16 -7.195344E-16  2.282663E-09  0.000000E+00  0.000000E+00  0.000000E+00  0.000000E+00  0.000000E+00  0.000000E+00  0.000000E+00  0.000000E+00  2.571430E-01  9.237525E-08 -7.997993E-08  2.571430E-01                                                                                                                                                                                                                                                                                                                                                                                                                                                                                              
  8.000000E+02  1.250000E+02 -4.725000E+03  4.365388E-07 -1.328385E-13 -1.341898E-13  4.365388E-07  2.282663E-09 -6.949056E-16 -7.019747E-16  2.282663E-09  0.000000E+00  0.000000E+00  0.000000E+00  0.000000E+00  0.000000E+00  0.000000E+00  0.000000E+00  0.000000E+00  2.571430E-01 -7.724231E-08 -7.802807E-08  2.571430E-01                                                                                                                                                                                                                                                                                                                                                                                                                                                                                              
  9.350000E+02  1.250000E+02 -4.725000E+03  4.365371E-07 -3.457934E-13 -1.115055E-13  4.365371E-07  2.282654E-09 -1.808916E-15 -5.833080E-16  2.282654E-09  0.000000E+00  0.000000E+00  0.000000E+00  0.000000E+00  0.000000E+00  0.000000E+00  0.000000E+00  0.000000E+00  2.571421E-01 -2.010703E-07 -6.483767E-08  2.571421E-01                                                                                                                                                                                                                                                                                                                                                                                                                                                                                              
  1.185000E+03  1.250000E+02 -4.725000E+03  4.365357E-07 -3.060320E-13 -7.581275E-14  4.365357E-07  2.282647E-09 -1.600916E-15 -3.965921E-16  2.282647E-09  0.000000E+00  0.000000E+00  0.000000E+00  0.000000E+00  0.000000E+00  0.000000E+00  0.000000E+00  0.000000E+00  2.571412E-01 -1.779500E-07 -4.408324E-08  2.571412E-01                                                                                                                                                                                                                                                                                                                                                                                                                                                                                              