Title="TOUGHREACT V3.30-OMP flowvector.tec: Liq & Gas Fluxes (kg/s/m^2), Pore Velocities (m/s), & Heat Fluxes (J/s/m2)"                                                                                                                                                                                                                                                                                                                                                                                                                                                                                                                                                                                                                                                                                                         
Variables= "X(m)"     "Y(m)"      "Z(m)"     "FluxLiq"   "FluxLiq_X"   "FluxLiq_Y"   "FluxLiq_Z"   "PorVelLiq"  "PorVelLiqX"  "PorVelLiqY"  "PorVelLiqZ"     "FluxGas"   "FluxGas_X"   "FluxGas_Y"   "FluxGas_Z"   "PorVelGas"  "PorVelGasX"  "PorVelGasY"  "PorVelGasZ"    "HeatFlux"  "HeatFlux_X"  "HeatFlux_Y"  "HeatFlux_Z"                                                                                                                                                                                                                                                                                                                                                                                                                                                                                                
Zone T= "1.00000000E+10 sec" I=     9 J=    10 K=    23 F=Point
  1.250000E+02  1.250000E+02 -5.425000E+03  1.148874E-07 -4.080343E-09  1.879067E-08 -1.132668E-07  5.671323E-10 -2.020109E-11  9.303128E-11 -5.590851E-10  0.000000E+00  0.000000E+00  0.000000E+00  0.000000E+00  0.000000E+00  0.000000E+00  0.000000E+00  0.000000E+00  7.488780E-02 -2.779960E-03  1.280183E-02 -7.373308E-02                                                                                                                                                                                                                                                                                                                                                                                                                                                                                              
  3.750000E+02  1.250000E+02 -5.425000E+03  1.125070E-07 -1.861322E-08  1.866194E-08 -1.093760E-07  5.554263E-10 -9.214733E-11  9.239284E-11 -5.398804E-10  0.000000E+00  0.000000E+00  0.000000E+00  0.000000E+00  0.000000E+00  0.000000E+00  0.000000E+00  0.000000E+00  7.343346E-02 -1.268160E-02  1.271448E-02 -7.120388E-02                                                                                                                                                                                                                                                                                                                                                                                                                                                                                              
  6.250000E+02  1.250000E+02 -5.425000E+03  1.167615E-07 -4.256398E-08  1.805530E-08 -1.072174E-07  5.765779E-10 -2.107089E-10  8.938471E-11 -5.292015E-10  0.000000E+00  0.000000E+00  0.000000E+00  0.000000E+00  0.000000E+00  0.000000E+00  0.000000E+00  0.000000E+00  7.658128E-02 -2.900014E-02  1.230157E-02 -6.980226E-02                                                                                                                                                                                                                                                                                                                                                                                                                                                                                              
  7.600000E+02  1.250000E+02 -5.425000E+03  1.245748E-07 -5.681482E-08  1.763466E-08 -1.094530E-07  6.152553E-10 -2.812490E-10  8.729721E-11 -5.402011E-10  0.000000E+00  0.000000E+00  0.000000E+00  0.000000E+00  0.000000E+00  0.000000E+00  0.000000E+00  0.000000E+00  8.197848E-02 -3.870978E-02  1.201506E-02 -7.125772E-02                                                                                                                                                                                                                                                                                                                                                                                                                                                                                              
  7.800000E+02  1.250000E+02 -5.425000E+03  1.255531E-07 -5.826714E-08  1.757155E-08 -1.098169E-07  6.200935E-10 -2.884353E-10  8.698402E-11 -5.419915E-10  0.000000E+00  0.000000E+00  0.000000E+00  0.000000E+00  0.000000E+00  0.000000E+00  0.000000E+00  0.000000E+00  8.264892E-02 -3.969934E-02  1.197208E-02 -7.149458E-02                                                                                                                                                                                                                                                                                                                                                                                                                                                                                              
  8.000000E+02  1.250000E+02 -5.425000E+03  1.265168E-07 -5.960950E-08  1.750768E-08 -1.102120E-07  6.248549E-10 -2.950702E-10  8.666702E-11 -5.439357E-10  0.000000E+00  0.000000E+00  0.000000E+00  0.000000E+00  0.000000E+00  0.000000E+00  0.000000E+00  0.000000E+00  8.330733E-02 -4.061406E-02  1.192857E-02 -7.175179E-02                                                                                                                                                                                                                                                                                                                                                                                                                                                                                              
  9.350000E+02  1.250000E+02 -5.425000E+03  1.306290E-07 -6.313307E-08  1.707126E-08 -1.130783E-07  6.451332E-10 -3.124828E-10  8.450129E-11 -5.580420E-10  0.000000E+00  0.000000E+00  0.000000E+00  0.000000E+00  0.000000E+00  0.000000E+00  0.000000E+00  0.000000E+00  8.605295E-02 -4.301500E-02  1.163128E-02 -7.361747E-02                                                                                                                                                                                                                                                                                                                                                                                                                                                                                              
  1.185000E+03  1.250000E+02 -5.425000E+03  1.338438E-07 -5.491358E-08  1.612975E-08 -1.209896E-07  6.607833E-10 -2.717741E-10  7.983059E-11 -5.969928E-10  0.000000E+00  0.000000E+00  0.000000E+00  0.000000E+00  0.000000E+00  0.000000E+00  0.000000E+00  0.000000E+00  8.789126E-02 -3.741484E-02  1.098985E-02 -7.876691E-02                                                                                                                                                                                                                                                                                                                                                                                                                                                                                              
  1.435000E+03  1.250000E+02 -5.425000E+03  1.297661E-07 -2.190658E-08  1.522132E-08 -1.269947E-07  6.403147E-10 -1.084126E-10  7.532799E-11 -6.265584E-10  0.000000E+00  0.000000E+00  0.000000E+00  0.000000E+00  0.000000E+00  0.000000E+00  0.000000E+00  0.000000E+00  8.464974E-02 -1.492585E-02  1.037091E-02 -8.267552E-02                                                                                                                                                                                                                                                                                                                                                                                                                                                                                              
  1.250000E+02  1.250000E+02 -5.225000E+03  4.291562E-07 -8.040070E-10  2.385103E-08 -4.284921E-07  2.108963E-09 -3.958654E-12  1.174354E-10 -2.105688E-09  0.000000E+00  0.000000E+00  0.000000E+00  0.000000E+00  0.000000E+00  0.000000E+00  0.000000E+00  0.000000E+00  2.706361E-01 -5.234093E-04  1.552626E-02 -2.701898E-01                                                                                                                                                                                                                                                                                                                                                                                                                                                                                              
  3.750000E+02  1.250000E+02 -5.225000E+03  4.112368E-07 -1.303601E-08  2.409237E-08 -4.103234E-07  2.021020E-09 -6.418246E-11  1.186242E-10 -2.016515E-09  0.000000E+00  0.000000E+00  0.000000E+00  0.000000E+00  0.000000E+00  0.000000E+00  0.000000E+00  0.000000E+00  2.593817E-01 -8.486873E-03  1.568415E-02 -2.587679E-01                                                                                                                                                                                                                                                                                                                                                                                                                                                                                              
  6.250000E+02  1.250000E+02 -5.225000E+03  4.016096E-07 -4.247306E-08  2.330276E-08 -3.986769E-07  1.973740E-09 -2.091053E-10  1.147314E-10 -1.959276E-09  0.000000E+00  0.000000E+00  0.000000E+00  0.000000E+00  0.000000E+00  0.000000E+00  0.000000E+00  0.000000E+00  2.534382E-01 -2.765144E-02  1.517091E-02 -2.514680E-01                                                                                                                                                                                                                                                                                                                                                                                                                                                                                              
  7.600000E+02  1.250000E+02 -5.225000E+03  4.127254E-07 -6.153195E-08  2.268728E-08 -4.074818E-07  2.028236E-09 -3.029293E-10  1.116936E-10 -2.002373E-09  0.000000E+00  0.000000E+00  0.000000E+00  0.000000E+00  0.000000E+00  0.000000E+00  0.000000E+00  0.000000E+00  2.605390E-01 -4.005942E-02  1.477020E-02 -2.570169E-01                                                                                                                                                                                                                                                                                                                                                                                                                                                                                              
  7.800000E+02  1.250000E+02 -5.225000E+03  4.144667E-07 -6.356671E-08  2.259551E-08 -4.089393E-07  2.036770E-09 -3.129427E-10  1.112407E-10 -2.009508E-09  0.000000E+00  0.000000E+00  0.000000E+00  0.000000E+00  0.000000E+00  0.000000E+00  0.000000E+00  0.000000E+00  2.616477E-01 -4.138412E-02  1.471045E-02 -2.579351E-01                                                                                                                                                                                                                                                                                                                                                                                                                                                                                              
  8.000000E+02  1.250000E+02 -5.225000E+03  4.163482E-07 -6.546403E-08  2.250325E-08 -4.105532E-07  2.045994E-09 -3.222706E-10  1.107853E-10 -2.017414E-09  0.000000E+00  0.000000E+00  0.000000E+00  0.000000E+00  0.000000E+00  0.000000E+00  0.000000E+00  0.000000E+00  2.628543E-01 -4.261922E-02  1.465039E-02 -2.589620E-01                                                                                                                                                                                                                                                                                                                                                                                                                                                                                              
  9.350000E+02  1.250000E+02 -5.225000E+03  4.288079E-07 -7.122862E-08  2.187586E-08 -4.222845E-07  2.107017E-09 -3.506091E-10  1.076887E-10 -2.074849E-09  0.000000E+00  0.000000E+00  0.000000E+00  0.000000E+00  0.000000E+00  0.000000E+00  0.000000E+00  0.000000E+00  2.707348E-01 -4.637169E-02  1.424186E-02 -2.663534E-01                                                                                                                                                                                                                                                                                                                                                                                                                                                                                              
  1.185000E+03  1.250000E+02 -5.225000E+03  4.587432E-07 -6.389218E-08  2.034384E-08 -4.538163E-07  2.253572E-09 -3.144610E-10  1.001311E-10 -2.229277E-09  0.000000E+00  0.000000E+00  0.000000E+00  0.000000E+00  0.000000E+00  0.000000E+00  0.000000E+00  0.000000E+00  2.895574E-01 -4.159504E-02  1.324429E-02 -2.862480E-01                                                                                                                                                                                                                                                                                                                                                                                                                                                                                              
  1.435000E+03  1.250000E+02 -5.225000E+03  4.789136E-07 -2.585178E-08  1.854747E-08 -4.778555E-07  2.352215E-09 -1.272275E-10  9.127969E-11 -2.346997E-09  0.000000E+00  0.000000E+00  0.000000E+00  0.000000E+00  0.000000E+00  0.000000E+00  0.000000E+00  0.000000E+00  3.021365E-01 -1.682991E-02  1.207469E-02 -3.014257E-01                                                                                                                                                                                                                                                                                                                                                                                                                                                                                              
  1.250000E+02  1.250000E+02 -4.975000E+03  8.712154E-07  1.353179E-08  4.539413E-08 -8.699268E-07  4.253441E-09  6.625148E-11  2.222506E-10 -4.247114E-09  0.000000E+00  0.000000E+00  0.000000E+00  0.000000E+00  0.000000E+00  0.000000E+00  0.000000E+00  0.000000E+00  5.202446E-01  8.433368E-03  2.829082E-02 -5.194063E-01                                                                                                                                                                                                                                                                                                                                                                                                                                                                                              
  3.750000E+02  1.250000E+02 -4.975000E+03  8.169121E-07  1.128110E-08  4.877272E-08 -8.153768E-07  3.988632E-09  5.523158E-11  2.388087E-10 -3.981093E-09  0.000000E+00  0.000000E+00  0.000000E+00  0.000000E+00  0.000000E+00  0.000000E+00  0.000000E+00  0.000000E+00  4.867827E-01  7.030521E-03  3.039737E-02 -4.857818E-01                                                                                                                                                                                                                                                                                                                                                                                                                                                                                              
  6.250000E+02  1.250000E+02 -4.975000E+03  7.742247E-07 -4.352748E-08  4.719246E-08 -7.715583E-07  3.780518E-09 -2.131041E-10  2.310725E-10 -3.767427E-09  0.000000E+00  0.000000E+00  0.000000E+00  0.000000E+00  0.000000E+00  0.000000E+00  0.000000E+00  0.000000E+00  4.610418E-01 -2.713037E-02  2.941491E-02 -4.593019E-01                                                                                                                                                                                                                                                                                                                                                                                                                                                                                              
  7.600000E+02  1.250000E+02 -4.975000E+03  7.963369E-07 -8.507484E-08  4.539960E-08 -7.904769E-07  3.888226E-09 -4.165073E-10  2.222718E-10 -3.859458E-09  0.000000E+00  0.000000E+00  0.000000E+00  0.000000E+00  0.000000E+00  0.000000E+00  0.000000E+00  0.000000E+00  4.747253E-01 -5.302648E-02  2.829724E-02 -4.709050E-01                                                                                                                                                                                                                                                                                                                                                                                                                                                                                              
  7.800000E+02  1.250000E+02 -4.975000E+03  8.004004E-07 -8.998832E-08  4.515679E-08 -7.940427E-07  3.908025E-09 -4.405552E-10  2.210797E-10 -3.876815E-09  0.000000E+00  0.000000E+00  0.000000E+00  0.000000E+00  0.000000E+00  0.000000E+00  0.000000E+00  0.000000E+00  4.772513E-01 -5.609051E-02  2.814584E-02 -4.731073E-01                                                                                                                                                                                                                                                                                                                                                                                                                                                                                              
  8.000000E+02  1.250000E+02 -4.975000E+03  8.057481E-07 -9.455997E-08  4.494087E-08 -7.989172E-07  3.934234E-09 -4.629103E-10  2.200200E-10 -3.900706E-09  0.000000E+00  0.000000E+00  0.000000E+00  0.000000E+00  0.000000E+00  0.000000E+00  0.000000E+00  0.000000E+00  4.809055E-01 -5.894162E-02  2.801278E-02 -4.764570E-01                                                                                                                                                                                                                                                                                                                                                                                                                                                                                              
  9.350000E+02  1.250000E+02 -4.975000E+03  8.389580E-07 -1.086086E-07  4.359767E-08 -8.307551E-07  4.095973E-09 -5.315885E-10  2.134199E-10 -4.055720E-09  0.000000E+00  0.000000E+00  0.000000E+00  0.000000E+00  0.000000E+00  0.000000E+00  0.000000E+00  0.000000E+00  5.014915E-01 -6.770241E-02  2.717553E-02 -4.961569E-01                                                                                                                                                                                                                                                                                                                                                                                                                                                                                              
  1.185000E+03  1.250000E+02 -4.975000E+03  9.097625E-07 -1.031541E-07  3.911986E-08 -9.030486E-07  4.440872E-09 -5.048022E-10  1.914525E-10 -4.407932E-09  0.000000E+00  0.000000E+00  0.000000E+00  0.000000E+00  0.000000E+00  0.000000E+00  0.000000E+00  0.000000E+00  5.459494E-01 -6.430862E-02  2.438697E-02 -5.415998E-01                                                                                                                                                                                                                                                                                                                                                                                                                                                                                              
  1.435000E+03  1.250000E+02 -4.975000E+03  9.592900E-07 -4.291528E-08  3.194316E-08 -9.577971E-07  4.682232E-09 -2.099920E-10  1.563033E-10 -4.674909E-09  0.000000E+00  0.000000E+00  0.000000E+00  0.000000E+00  0.000000E+00  0.000000E+00  0.000000E+00  0.000000E+00  5.777745E-01 -2.675626E-02  1.991551E-02 -5.768109E-01                                                                                                                                                                                                                                                                                                                                                                                                                                                                                              
  1.250000E+02  1.250000E+02 -4.725000E+03  1.448274E-06  5.127674E-08  9.070246E-08 -1.444521E-06  6.948934E-09  2.487387E-10  4.399681E-10 -6.930529E-09  0.000000E+00  0.000000E+00  0.000000E+00  0.000000E+00  0.000000E+00  0.000000E+00  0.000000E+00  0.000000E+00  6.319555E-01  2.985354E-02  5.280736E-02 -6.290373E-01                                                                                                                                                                                                                                                                                                                                                                                                                                                                                              
  3.750000E+02  1.250000E+02 -4.725000E+03  1.324806E-06  8.266665E-08  1.144158E-07 -1.317264E-06  6.346254E-09  4.009895E-10  5.549083E-10 -6.309218E-09  0.000000E+00  0.000000E+00  0.000000E+00  0.000000E+00  0.000000E+00  0.000000E+00  0.000000E+00  0.000000E+00  5.400575E-01  4.805045E-02  6.632750E-02 -5.338108E-01                                                                                                                                                                                                                                                                                                                                                                                                                                                                                              
  6.250000E+02  1.250000E+02 -4.725000E+03  1.179538E-06 -2.914201E-08  1.117690E-07 -1.173869E-06  5.644798E-09 -1.413294E-10  5.421112E-10 -5.616928E-09  0.000000E+00  0.000000E+00  0.000000E+00  0.000000E+00  0.000000E+00  0.000000E+00  0.000000E+00  0.000000E+00  4.529114E-01 -1.685333E-02  6.463484E-02 -4.479587E-01                                                                                                                                                                                                                                                                                                                                                                                                                                                                                              
  7.600000E+02  1.250000E+02 -4.725000E+03  1.167715E-06 -1.308447E-07  1.000852E-07 -1.156037E-06  5.591517E-09 -6.346148E-10  4.853705E-10 -5.534143E-09  0.000000E+00  0.000000E+00  0.000000E+00  0.000000E+00  0.000000E+00  0.000000E+00  0.000000E+00  0.000000E+00  4.571269E-01 -7.577666E-02  5.795305E-02 -4.470619E-01                                                                                                                                                                                                                                                                                                                                                                                                                                                                                              
  7.800000E+02  1.250000E+02 -4.725000E+03  1.163393E-06 -1.512538E-07  9.910656E-08 -1.149253E-06  5.571657E-09 -7.336455E-10  4.806303E-10 -5.502193E-09  0.000000E+00  0.000000E+00  0.000000E+00  0.000000E+00  0.000000E+00  0.000000E+00  0.000000E+00  0.000000E+00  4.573389E-01 -8.768404E-02  5.740432E-02 -4.451686E-01                                                                                                                                                                                                                                                                                                                                                                                                                                                                                              
  8.000000E+02  1.250000E+02 -4.725000E+03  1.242572E-06 -1.668588E-07  9.903073E-08 -1.227329E-06  5.951947E-09 -8.093742E-10  4.803093E-10 -5.877065E-09  0.000000E+00  0.000000E+00  0.000000E+00  0.000000E+00  0.000000E+00  0.000000E+00  0.000000E+00  0.000000E+00  4.999392E-01 -9.694184E-02  5.745225E-02 -4.870736E-01                                                                                                                                                                                                                                                                                                                                                                                                                                                                                              
  9.350000E+02  1.250000E+02 -4.725000E+03  1.335905E-06 -1.885484E-07  9.955002E-08 -1.318781E-06  6.405852E-09 -9.146329E-10  4.828293E-10 -6.321809E-09  0.000000E+00  0.000000E+00  0.000000E+00  0.000000E+00  0.000000E+00  0.000000E+00  0.000000E+00  0.000000E+00  5.667963E-01 -1.101202E-01  5.791509E-02 -5.529715E-01                                                                                                                                                                                                                                                                                                                                                                                                                                                                                              
  1.185000E+03  1.250000E+02 -4.725000E+03  1.458137E-06 -1.769857E-07  8.484515E-08 -1.444867E-06  7.012278E-09 -8.587149E-10  4.115921E-10 -6.947319E-09  0.000000E+00  0.000000E+00  0.000000E+00  0.000000E+00  0.000000E+00  0.000000E+00  0.000000E+00  0.000000E+00  6.864783E-01 -1.040015E-01  4.971460E-02 -6.767308E-01                                                                                                                                                                                                                                                                                                                                                                                                                                                                                              