Title="TOUGHREACT V3.30-OMP flowdata.tec: P,T,SAT & Other Variables"                                                                                                                                                                                                                                                                                                                                                                                                                                                                                                                                                                                                                                                                                                                                                            
Variables= "X(m)"     "Y(m)"      "Z(m)"       "P(Pa)"        "T(C)"      "SatGas"      "SatLiq"          "X1"          "X2"    "Pcap(Pa)"  "DGas_kg/m3"  "DLiq_kg/m3"    "Porosity"  "Perm_X(m2)"  "Perm_Y(m2)"  "Perm_Z(m2)"    "Krel_Gas"    "Krel_Liq"                                                                                                                                                                                                                                                                                                                                                                                                                                                                                                                                                                      
Zone T= "3.15569000E+08 sec" I=     9 J=    10 K=    23 F=Point
  1.250000E+02  1.250000E+02 -5.425000E+03  5.177797E+07  1.482227E+02  0.000000E+00  1.000000E+00  1.000000E+00  0.000000E+00  0.000000E+00  2.435800E+00  9.452767E+02  1.999423E-01  1.000000E-16  1.000000E-16  1.000000E-16  0.000000E+00  1.000000E+00                                                                                                                                                                                                                                                                                                                                                                                                                                                                                                                                                                    
  3.750000E+02  1.250000E+02 -5.425000E+03  5.177795E+07  1.482227E+02  0.000000E+00  1.000000E+00  1.000000E+00  0.000000E+00  0.000000E+00  2.435800E+00  9.452767E+02  1.999423E-01  1.000000E-16  1.000000E-16  1.000000E-16  0.000000E+00  1.000000E+00                                                                                                                                                                                                                                                                                                                                                                                                                                                                                                                                                                    
  6.250000E+02  1.250000E+02 -5.425000E+03  5.177794E+07  1.482227E+02  0.000000E+00  1.000000E+00  1.000000E+00  0.000000E+00  0.000000E+00  2.435800E+00  9.452767E+02  1.999423E-01  1.000000E-16  1.000000E-16  1.000000E-16  0.000000E+00  1.000000E+00                                                                                                                                                                                                                                                                                                                                                                                                                                                                                                                                                                    
  7.600000E+02  1.250000E+02 -5.425000E+03  5.177795E+07  1.482227E+02  0.000000E+00  1.000000E+00  1.000000E+00  0.000000E+00  0.000000E+00  2.435800E+00  9.452767E+02  1.999423E-01  1.000000E-16  1.000000E-16  1.000000E-16  0.000000E+00  1.000000E+00                                                                                                                                                                                                                                                                                                                                                                                                                                                                                                                                                                    
  7.800000E+02  1.250000E+02 -5.425000E+03  5.177795E+07  1.482227E+02  0.000000E+00  1.000000E+00  1.000000E+00  0.000000E+00  0.000000E+00  2.435800E+00  9.452767E+02  1.999423E-01  1.000000E-16  1.000000E-16  1.000000E-16  0.000000E+00  1.000000E+00                                                                                                                                                                                                                                                                                                                                                                                                                                                                                                                                                                    
  8.000000E+02  1.250000E+02 -5.425000E+03  5.177795E+07  1.482227E+02  0.000000E+00  1.000000E+00  1.000000E+00  0.000000E+00  0.000000E+00  2.435800E+00  9.452767E+02  1.999423E-01  1.000000E-16  1.000000E-16  1.000000E-16  0.000000E+00  1.000000E+00                                                                                                                                                                                                                                                                                                                                                                                                                                                                                                                                                                    
  9.350000E+02  1.250000E+02 -5.425000E+03  5.177797E+07  1.482227E+02  0.000000E+00  1.000000E+00  1.000000E+00  0.000000E+00  0.000000E+00  2.435800E+00  9.452767E+02  1.999423E-01  1.000000E-16  1.000000E-16  1.000000E-16  0.000000E+00  1.000000E+00                                                                                                                                                                                                                                                                                                                                                                                                                                                                                                                                                                    
  1.185000E+03  1.250000E+02 -5.425000E+03  5.177800E+07  1.482227E+02  0.000000E+00  1.000000E+00  1.000000E+00  0.000000E+00  0.000000E+00  2.435800E+00  9.452768E+02  1.999423E-01  1.000000E-16  1.000000E-16  1.000000E-16  0.000000E+00  1.000000E+00                                                                                                                                                                                                                                                                                                                                                                                                                                                                                                                                                                    
  1.435000E+03  1.250000E+02 -5.425000E+03  5.177801E+07  1.482227E+02  0.000000E+00  1.000000E+00  1.000000E+00  0.000000E+00  0.000000E+00  2.435800E+00  9.452768E+02  1.999423E-01  1.000000E-16  1.000000E-16  1.000000E-16  0.000000E+00  1.000000E+00                                                                                                                                                                                                                                                                                                                                                                                                                                                                                                                                                                    
  1.250000E+02  1.250000E+02 -5.225000E+03  4.994464E+07  1.432634E+02  0.000000E+00  1.000000E+00  1.000000E+00  0.000000E+00  0.000000E+00  2.143230E+00  9.484558E+02  2.000167E-01  1.000000E-16  1.000000E-16  1.000000E-16  0.000000E+00  1.000000E+00                                                                                                                                                                                                                                                                                                                                                                                                                                                                                                                                                                    
  3.750000E+02  1.250000E+02 -5.225000E+03  4.994461E+07  1.432634E+02  0.000000E+00  1.000000E+00  1.000000E+00  0.000000E+00  0.000000E+00  2.143229E+00  9.484557E+02  2.000167E-01  1.000000E-16  1.000000E-16  1.000000E-16  0.000000E+00  1.000000E+00                                                                                                                                                                                                                                                                                                                                                                                                                                                                                                                                                                    
  6.250000E+02  1.250000E+02 -5.225000E+03  4.994459E+07  1.432634E+02  0.000000E+00  1.000000E+00  1.000000E+00  0.000000E+00  0.000000E+00  2.143229E+00  9.484557E+02  2.000167E-01  1.000000E-16  1.000000E-16  1.000000E-16  0.000000E+00  1.000000E+00                                                                                                                                                                                                                                                                                                                                                                                                                                                                                                                                                                    
  7.600000E+02  1.250000E+02 -5.225000E+03  4.994461E+07  1.432634E+02  0.000000E+00  1.000000E+00  1.000000E+00  0.000000E+00  0.000000E+00  2.143229E+00  9.484557E+02  2.000167E-01  1.000000E-16  1.000000E-16  1.000000E-16  0.000000E+00  1.000000E+00                                                                                                                                                                                                                                                                                                                                                                                                                                                                                                                                                                    
  7.800000E+02  1.250000E+02 -5.225000E+03  4.994461E+07  1.432634E+02  0.000000E+00  1.000000E+00  1.000000E+00  0.000000E+00  0.000000E+00  2.143229E+00  9.484557E+02  2.000167E-01  1.000000E-16  1.000000E-16  1.000000E-16  0.000000E+00  1.000000E+00                                                                                                                                                                                                                                                                                                                                                                                                                                                                                                                                                                    
  8.000000E+02  1.250000E+02 -5.225000E+03  4.994461E+07  1.432634E+02  0.000000E+00  1.000000E+00  1.000000E+00  0.000000E+00  0.000000E+00  2.143229E+00  9.484557E+02  2.000167E-01  1.000000E-16  1.000000E-16  1.000000E-16  0.000000E+00  1.000000E+00                                                                                                                                                                                                                                                                                                                                                                                                                                                                                                                                                                    
  9.350000E+02  1.250000E+02 -5.225000E+03  4.994463E+07  1.432634E+02  0.000000E+00  1.000000E+00  1.000000E+00  0.000000E+00  0.000000E+00  2.143230E+00  9.484558E+02  2.000167E-01  1.000000E-16  1.000000E-16  1.000000E-16  0.000000E+00  1.000000E+00                                                                                                                                                                                                                                                                                                                                                                                                                                                                                                                                                                    
  1.185000E+03  1.250000E+02 -5.225000E+03  4.994467E+07  1.432634E+02  0.000000E+00  1.000000E+00  1.000000E+00  0.000000E+00  0.000000E+00  2.143230E+00  9.484558E+02  2.000168E-01  1.000000E-16  1.000000E-16  1.000000E-16  0.000000E+00  1.000000E+00                                                                                                                                                                                                                                                                                                                                                                                                                                                                                                                                                                    
  1.435000E+03  1.250000E+02 -5.225000E+03  4.994469E+07  1.432634E+02  0.000000E+00  1.000000E+00  1.000000E+00  0.000000E+00  0.000000E+00  2.143230E+00  9.484558E+02  2.000168E-01  1.000000E-16  1.000000E-16  1.000000E-16  0.000000E+00  1.000000E+00                                                                                                                                                                                                                                                                                                                                                                                                                                                                                                                                                                    
  1.250000E+02  1.250000E+02 -4.975000E+03  4.771599E+07  1.371451E+02  0.000000E+00  1.000000E+00  1.000000E+00  0.000000E+00  0.000000E+00  1.821828E+00  9.523163E+02  2.001507E-01  1.000000E-16  1.000000E-16  1.000000E-16  0.000000E+00  1.000000E+00                                                                                                                                                                                                                                                                                                                                                                                                                                                                                                                                                                    
  3.750000E+02  1.250000E+02 -4.975000E+03  4.771594E+07  1.371451E+02  0.000000E+00  1.000000E+00  1.000000E+00  0.000000E+00  0.000000E+00  1.821828E+00  9.523163E+02  2.001506E-01  1.000000E-16  1.000000E-16  1.000000E-16  0.000000E+00  1.000000E+00                                                                                                                                                                                                                                                                                                                                                                                                                                                                                                                                                                    
  6.250000E+02  1.250000E+02 -4.975000E+03  4.771590E+07  1.371451E+02  0.000000E+00  1.000000E+00  1.000000E+00  0.000000E+00  0.000000E+00  1.821827E+00  9.523163E+02  2.001506E-01  1.000000E-16  1.000000E-16  1.000000E-16  0.000000E+00  1.000000E+00                                                                                                                                                                                                                                                                                                                                                                                                                                                                                                                                                                    
  7.600000E+02  1.250000E+02 -4.975000E+03  4.771593E+07  1.371451E+02  0.000000E+00  1.000000E+00  1.000000E+00  0.000000E+00  0.000000E+00  1.821827E+00  9.523163E+02  2.001506E-01  1.000000E-16  1.000000E-16  1.000000E-16  0.000000E+00  1.000000E+00                                                                                                                                                                                                                                                                                                                                                                                                                                                                                                                                                                    
  7.800000E+02  1.250000E+02 -4.975000E+03  4.771593E+07  1.371451E+02  0.000000E+00  1.000000E+00  1.000000E+00  0.000000E+00  0.000000E+00  1.821827E+00  9.523163E+02  2.001506E-01  1.000000E-16  1.000000E-16  1.000000E-16  0.000000E+00  1.000000E+00                                                                                                                                                                                                                                                                                                                                                                                                                                                                                                                                                                    
  8.000000E+02  1.250000E+02 -4.975000E+03  4.771594E+07  1.371451E+02  0.000000E+00  1.000000E+00  1.000000E+00  0.000000E+00  0.000000E+00  1.821827E+00  9.523163E+02  2.001506E-01  1.000000E-16  1.000000E-16  1.000000E-16  0.000000E+00  1.000000E+00                                                                                                                                                                                                                                                                                                                                                                                                                                                                                                                                                                    
  9.350000E+02  1.250000E+02 -4.975000E+03  4.771597E+07  1.371451E+02  0.000000E+00  1.000000E+00  1.000000E+00  0.000000E+00  0.000000E+00  1.821828E+00  9.523163E+02  2.001507E-01  1.000000E-16  1.000000E-16  1.000000E-16  0.000000E+00  1.000000E+00                                                                                                                                                                                                                                                                                                                                                                                                                                                                                                                                                                    
  1.185000E+03  1.250000E+02 -4.975000E+03  4.771603E+07  1.371452E+02  0.000000E+00  1.000000E+00  1.000000E+00  0.000000E+00  0.000000E+00  1.821828E+00  9.523163E+02  2.001507E-01  1.000000E-16  1.000000E-16  1.000000E-16  0.000000E+00  1.000000E+00                                                                                                                                                                                                                                                                                                                                                                                                                                                                                                                                                                    
  1.435000E+03  1.250000E+02 -4.975000E+03  4.771605E+07  1.371452E+02  0.000000E+00  1.000000E+00  1.000000E+00  0.000000E+00  0.000000E+00  1.821828E+00  9.523163E+02  2.001507E-01  1.000000E-16  1.000000E-16  1.000000E-16  0.000000E+00  1.000000E+00                                                                                                                                                                                                                                                                                                                                                                                                                                                                                                                                                                    
  1.250000E+02  1.250000E+02 -4.725000E+03  4.561285E+07  1.310294E+02  0.000000E+00  1.000000E+00  1.000000E+00  0.000000E+00  0.000000E+00  1.540422E+00  9.561440E+02  2.003651E-01  1.000000E-16  1.000000E-16  1.000000E-16  0.000000E+00  1.000000E+00                                                                                                                                                                                                                                                                                                                                                                                                                                                                                                                                                                    
  3.750000E+02  1.250000E+02 -4.725000E+03  4.561281E+07  1.310294E+02  0.000000E+00  1.000000E+00  1.000000E+00  0.000000E+00  0.000000E+00  1.540421E+00  9.561439E+02  2.003651E-01  1.000000E-16  1.000000E-16  1.000000E-16  0.000000E+00  1.000000E+00                                                                                                                                                                                                                                                                                                                                                                                                                                                                                                                                                                    
  6.250000E+02  1.250000E+02 -4.725000E+03  4.561275E+07  1.310294E+02  0.000000E+00  1.000000E+00  1.000000E+00  0.000000E+00  0.000000E+00  1.540421E+00  9.561439E+02  2.003651E-01  1.000000E-16  1.000000E-16  1.000000E-16  0.000000E+00  1.000000E+00                                                                                                                                                                                                                                                                                                                                                                                                                                                                                                                                                                    
  7.600000E+02  1.250000E+02 -4.725000E+03  4.561278E+07  1.310294E+02  0.000000E+00  1.000000E+00  1.000000E+00  0.000000E+00  0.000000E+00  1.540421E+00  9.561439E+02  2.003651E-01  1.000000E-16  1.000000E-16  1.000000E-16  0.000000E+00  1.000000E+00                                                                                                                                                                                                                                                                                                                                                                                                                                                                                                                                                                    
  7.800000E+02  1.250000E+02 -4.725000E+03  4.561278E+07  1.310294E+02  0.000000E+00  1.000000E+00  1.000000E+00  0.000000E+00  0.000000E+00  1.540421E+00  9.561439E+02  2.003651E-01  1.000000E-16  1.000000E-16  1.000000E-16  0.000000E+00  1.000000E+00                                                                                                                                                                                                                                                                                                                                                                                                                                                                                                                                                                    
  8.000000E+02  1.250000E+02 -4.725000E+03  4.561279E+07  1.310294E+02  0.000000E+00  1.000000E+00  1.000000E+00  0.000000E+00  0.000000E+00  1.540421E+00  9.561439E+02  2.003651E-01  1.000000E-16  1.000000E-16  1.000000E-16  0.000000E+00  1.000000E+00                                                                                                                                                                                                                                                                                                                                                                                                                                                                                                                                                                    
  9.350000E+02  1.250000E+02 -4.725000E+03  4.561283E+07  1.310294E+02  0.000000E+00  1.000000E+00  1.000000E+00  0.000000E+00  0.000000E+00  1.540422E+00  9.561440E+02  2.003651E-01  1.000000E-16  1.000000E-16  1.000000E-16  0.000000E+00  1.000000E+00                                                                                                                                                                                                                                                                                                                                                                                                                                                                                                                                                                    
  1.185000E+03  1.250000E+02 -4.725000E+03  4.561287E+07  1.310294E+02  0.000000E+00  1.000000E+00  1.000000E+00  0.000000E+00  0.000000E+00  1.540422E+00  9.561440E+02  2.003652E-01  1.000000E-16  1.000000E-16  1.000000E-16  0.000000E+00  1.000000E+00                                                                                                                                                                                                                                                                                                                                                                                                                                                                                                                                                                    