Title="TOUGHREACT V3.30-OMP flowvector.tec: Liq & Gas Fluxes (kg/s/m^2), Pore Velocities (m/s), & Heat Fluxes (J/s/m2)"                                                                                                                                                                                                                                                                                                                                                                                                                                                                                                                                                                                                                                                                                                         
Variables= "X(m)"     "Y(m)"      "Z(m)"     "FluxLiq"   "FluxLiq_X"   "FluxLiq_Y"   "FluxLiq_Z"   "PorVelLiq"  "PorVelLiqX"  "PorVelLiqY"  "PorVelLiqZ"     "FluxGas"   "FluxGas_X"   "FluxGas_Y"   "FluxGas_Z"   "PorVelGas"  "PorVelGasX"  "PorVelGasY"  "PorVelGasZ"    "HeatFlux"  "HeatFlux_X"  "HeatFlux_Y"  "HeatFlux_Z"                                                                                                                                                                                                                                                                                                                                                                                                                                                                                                
Zone T= "5.18400000E+05 sec" I=     9 J=    10 K=    23 F=Point
  1.250000E+02  1.250000E+02 -5.425000E+03  1.130299E-07 -1.806283E-19 -7.225133E-21  1.130299E-07  5.968391E-10 -9.553351E-22 -3.821340E-23  5.968391E-10  0.000000E+00  0.000000E+00  0.000000E+00  0.000000E+00  0.000000E+00  0.000000E+00  0.000000E+00  0.000000E+00  7.433239E-02 -1.187875E-13 -4.751500E-15  7.433239E-02                                                                                                                                                                                                                                                                                                                                                                                                                                                                                              
  3.750000E+02  1.250000E+02 -5.425000E+03  1.130299E-07 -1.153782E-16 -7.947647E-20  1.130299E-07  5.968391E-10 -6.102298E-19 -4.203474E-22  5.968391E-10  0.000000E+00  0.000000E+00  0.000000E+00  0.000000E+00  0.000000E+00  0.000000E+00  0.000000E+00  0.000000E+00  7.433239E-02 -7.587670E-11 -5.226650E-14  7.433239E-02                                                                                                                                                                                                                                                                                                                                                                                                                                                                                              
  6.250000E+02  1.250000E+02 -5.425000E+03  1.130299E-07 -1.304238E-16 -5.100944E-17  1.130299E-07  5.968391E-10 -6.898057E-19 -2.697866E-19  5.968391E-10  0.000000E+00  0.000000E+00  0.000000E+00  0.000000E+00  0.000000E+00  0.000000E+00  0.000000E+00  0.000000E+00  7.433239E-02 -8.577125E-11 -3.354559E-11  7.433239E-02                                                                                                                                                                                                                                                                                                                                                                                                                                                                                              
  7.600000E+02  1.250000E+02 -5.425000E+03  1.130299E-07 -4.575249E-17  1.505068E-16  1.130299E-07  5.968391E-10 -2.419828E-19  7.960234E-19  5.968391E-10  0.000000E+00  0.000000E+00  0.000000E+00  0.000000E+00  0.000000E+00  0.000000E+00  0.000000E+00  0.000000E+00  7.433239E-02 -3.008843E-11  9.897849E-11  7.433239E-02                                                                                                                                                                                                                                                                                                                                                                                                                                                                                              
  7.800000E+02  1.250000E+02 -5.425000E+03  1.130299E-07  1.128114E-15  1.456009E-16  1.130299E-07  5.968391E-10  5.966545E-18  7.700765E-19  5.968391E-10  0.000000E+00  0.000000E+00  0.000000E+00  0.000000E+00  0.000000E+00  0.000000E+00  0.000000E+00  0.000000E+00  7.433239E-02  7.418873E-10  9.575222E-11  7.433239E-02                                                                                                                                                                                                                                                                                                                                                                                                                                                                                              
  8.000000E+02  1.250000E+02 -5.425000E+03  1.130299E-07  9.111529E-16 -4.528714E-17  1.130299E-07  5.968391E-10  4.819046E-18 -2.395216E-19  5.968391E-10  0.000000E+00  0.000000E+00  0.000000E+00  0.000000E+00  0.000000E+00  0.000000E+00  0.000000E+00  0.000000E+00  7.433239E-02  5.992059E-10 -2.978240E-11  7.433239E-02                                                                                                                                                                                                                                                                                                                                                                                                                                                                                              
  9.350000E+02  1.250000E+02 -5.425000E+03  1.130299E-07 -8.075317E-17 -1.603980E-17  1.130299E-07  5.968391E-10 -4.270999E-19 -8.483375E-20  5.968391E-10  0.000000E+00  0.000000E+00  0.000000E+00  0.000000E+00  0.000000E+00  0.000000E+00  0.000000E+00  0.000000E+00  7.433239E-02 -5.310610E-11 -1.054833E-11  7.433239E-02                                                                                                                                                                                                                                                                                                                                                                                                                                                                                              
  1.185000E+03  1.250000E+02 -5.425000E+03  1.130299E-07  1.669945E-16 -3.612567E-20  1.130299E-07  5.968391E-10  8.832264E-19 -1.910670E-22  5.968391E-10  0.000000E+00  0.000000E+00  0.000000E+00  0.000000E+00  0.000000E+00  0.000000E+00  0.000000E+00  0.000000E+00  7.433239E-02  1.098214E-10 -2.375750E-14  7.433239E-02                                                                                                                                                                                                                                                                                                                                                                                                                                                                                              
  1.435000E+03  1.250000E+02 -5.425000E+03  1.130299E-07  2.601048E-19  0.000000E+00  1.130299E-07  5.968391E-10  1.375682E-21  0.000000E+00  5.968391E-10  0.000000E+00  0.000000E+00  0.000000E+00  0.000000E+00  0.000000E+00  0.000000E+00  0.000000E+00  0.000000E+00  7.433239E-02  1.710540E-13  0.000000E+00  7.433239E-02                                                                                                                                                                                                                                                                                                                                                                                                                                                                                              
  1.250000E+02  1.250000E+02 -5.225000E+03  2.164200E-07  5.985006E-18 -5.619724E-20  2.164200E-07  1.140809E-09  3.155170E-20 -2.962601E-22  1.140809E-09  0.000000E+00  0.000000E+00  0.000000E+00  0.000000E+00  0.000000E+00  0.000000E+00  0.000000E+00  0.000000E+00  1.400768E-01  3.805787E-12 -3.573509E-14  1.400768E-01                                                                                                                                                                                                                                                                                                                                                                                                                                                                                              
  3.750000E+02  1.250000E+02 -5.225000E+03  2.164200E-07  1.799717E-17  2.507802E-18  2.164200E-07  1.140809E-09  9.487729E-20  1.322061E-20  1.140809E-09  0.000000E+00  0.000000E+00  0.000000E+00  0.000000E+00  0.000000E+00  0.000000E+00  0.000000E+00  0.000000E+00  1.400768E-01  1.144416E-11  1.594678E-12  1.400768E-01                                                                                                                                                                                                                                                                                                                                                                                                                                                                                              
  6.250000E+02  1.250000E+02 -5.225000E+03  2.164200E-07  1.076333E-17 -5.163122E-18  2.164200E-07  1.140809E-09  5.674204E-20 -2.721890E-20  1.140809E-09  0.000000E+00  0.000000E+00  0.000000E+00  0.000000E+00  0.000000E+00  0.000000E+00  0.000000E+00  0.000000E+00  1.400768E-01  6.844262E-12 -3.283161E-12  1.400768E-01                                                                                                                                                                                                                                                                                                                                                                                                                                                                                              
  7.600000E+02  1.250000E+02 -5.225000E+03  2.164200E-07 -2.320087E-17  3.041676E-18  2.164200E-07  1.140809E-09 -1.223102E-19  1.603508E-20  1.140809E-09  0.000000E+00  0.000000E+00  0.000000E+00  0.000000E+00  0.000000E+00  0.000000E+00  0.000000E+00  0.000000E+00  1.400768E-01 -1.475313E-11  1.934162E-12  1.400768E-01                                                                                                                                                                                                                                                                                                                                                                                                                                                                                              
  7.800000E+02  1.250000E+02 -5.225000E+03  2.164200E-07 -4.688957E-17  6.884162E-18  2.164200E-07  1.140809E-09 -2.471920E-19  3.629186E-20  1.140809E-09  0.000000E+00  0.000000E+00  0.000000E+00  0.000000E+00  0.000000E+00  0.000000E+00  0.000000E+00  0.000000E+00  1.400768E-01 -2.981646E-11  4.377548E-12  1.400768E-01                                                                                                                                                                                                                                                                                                                                                                                                                                                                                              
  8.000000E+02  1.250000E+02 -5.225000E+03  2.164200E-07 -1.670307E-17  5.556502E-18  2.164200E-07  1.140809E-09 -8.805508E-20  2.929272E-20  1.140809E-09  0.000000E+00  0.000000E+00  0.000000E+00  0.000000E+00  0.000000E+00  0.000000E+00  0.000000E+00  0.000000E+00  1.400768E-01 -1.062126E-11  3.533307E-12  1.400768E-01                                                                                                                                                                                                                                                                                                                                                                                                                                                                                              
  9.350000E+02  1.250000E+02 -5.225000E+03  2.164200E-07 -1.810800E-18 -1.053698E-19  2.164200E-07  1.140809E-09 -9.546159E-21 -5.554877E-22  1.140809E-09  0.000000E+00  0.000000E+00  0.000000E+00  0.000000E+00  0.000000E+00  0.000000E+00  0.000000E+00  0.000000E+00  1.400768E-01 -1.151464E-12 -6.700329E-14  1.400768E-01                                                                                                                                                                                                                                                                                                                                                                                                                                                                                              
  1.185000E+03  1.250000E+02 -5.225000E+03  2.164200E-07 -1.593894E-17 -1.861534E-18  2.164200E-07  1.140809E-09 -8.402677E-20 -9.813616E-21  1.140809E-09  0.000000E+00  0.000000E+00  0.000000E+00  0.000000E+00  0.000000E+00  0.000000E+00  0.000000E+00  0.000000E+00  1.400768E-01 -1.013536E-11 -1.183725E-12  1.400768E-01                                                                                                                                                                                                                                                                                                                                                                                                                                                                                              
  1.435000E+03  1.250000E+02 -5.225000E+03  2.164200E-07 -5.893686E-18 -4.214793E-20  2.164200E-07  1.140809E-09 -3.107028E-20 -2.221951E-22  1.140809E-09  0.000000E+00  0.000000E+00  0.000000E+00  0.000000E+00  0.000000E+00  0.000000E+00  0.000000E+00  0.000000E+00  1.400768E-01 -3.747717E-12 -2.680132E-14  1.400768E-01                                                                                                                                                                                                                                                                                                                                                                                                                                                                                              
  1.250000E+02  1.250000E+02 -4.975000E+03  1.970462E-07  2.618344E-16 -1.810935E-17  1.970462E-07  1.034802E-09  1.374873E-18 -9.509082E-20  1.034802E-09  0.000000E+00  0.000000E+00  0.000000E+00  0.000000E+00  0.000000E+00  0.000000E+00  0.000000E+00  0.000000E+00  1.227526E-01  1.593780E-10 -1.102312E-11  1.227526E-01                                                                                                                                                                                                                                                                                                                                                                                                                                                                                              
  3.750000E+02  1.250000E+02 -4.975000E+03  1.970462E-07  8.126537E-16 -3.140037E-17  1.970462E-07  1.034802E-09  4.267183E-18 -1.648809E-19  1.034802E-09  0.000000E+00  0.000000E+00  0.000000E+00  0.000000E+00  0.000000E+00  0.000000E+00  0.000000E+00  0.000000E+00  1.227527E-01  4.946606E-10 -1.911334E-11  1.227527E-01                                                                                                                                                                                                                                                                                                                                                                                                                                                                                              
  6.250000E+02  1.250000E+02 -4.975000E+03  1.970463E-07  1.276514E-15 -2.529624E-17  1.970463E-07  1.034803E-09  6.702879E-18 -1.328287E-19  1.034803E-09  0.000000E+00  0.000000E+00  0.000000E+00  0.000000E+00  0.000000E+00  0.000000E+00  0.000000E+00  0.000000E+00  1.227528E-01  7.770115E-10 -1.539777E-11  1.227528E-01                                                                                                                                                                                                                                                                                                                                                                                                                                                                                              
  7.600000E+02  1.250000E+02 -4.975000E+03  1.970464E-07  9.223701E-16 -2.811822E-17  1.970464E-07  1.034803E-09  4.843295E-18 -1.476466E-19  1.034803E-09  0.000000E+00  0.000000E+00  0.000000E+00  0.000000E+00  0.000000E+00  0.000000E+00  0.000000E+00  0.000000E+00  1.227528E-01  5.614448E-10 -1.711550E-11  1.227528E-01                                                                                                                                                                                                                                                                                                                                                                                                                                                                                              
  7.800000E+02  1.250000E+02 -4.975000E+03  1.970464E-07  5.075490E-19 -2.564814E-17  1.970464E-07  1.034804E-09  2.665101E-21 -1.346765E-19  1.034804E-09  0.000000E+00  0.000000E+00  0.000000E+00  0.000000E+00  0.000000E+00  0.000000E+00  0.000000E+00  0.000000E+00  1.227528E-01  3.089440E-13 -1.561197E-11  1.227528E-01                                                                                                                                                                                                                                                                                                                                                                                                                                                                                              
  8.000000E+02  1.250000E+02 -4.975000E+03  1.970464E-07 -8.864720E-16 -2.437589E-17  1.970464E-07  1.034803E-09 -4.654797E-18 -1.279959E-19  1.034803E-09  0.000000E+00  0.000000E+00  0.000000E+00  0.000000E+00  0.000000E+00  0.000000E+00  0.000000E+00  0.000000E+00  1.227528E-01 -5.395936E-10 -1.483755E-11  1.227528E-01                                                                                                                                                                                                                                                                                                                                                                                                                                                                                              
  9.350000E+02  1.250000E+02 -4.975000E+03  1.970463E-07 -1.194740E-15 -3.244253E-17  1.970463E-07  1.034803E-09 -6.273491E-18 -1.703533E-19  1.034803E-09  0.000000E+00  0.000000E+00  0.000000E+00  0.000000E+00  0.000000E+00  0.000000E+00  0.000000E+00  0.000000E+00  1.227528E-01 -7.272359E-10 -1.974770E-11  1.227528E-01                                                                                                                                                                                                                                                                                                                                                                                                                                                                                              
  1.185000E+03  1.250000E+02 -4.975000E+03  1.970462E-07 -7.723813E-16 -2.412550E-17  1.970462E-07  1.034802E-09 -4.055716E-18 -1.266812E-19  1.034802E-09  0.000000E+00  0.000000E+00  0.000000E+00  0.000000E+00  0.000000E+00  0.000000E+00  0.000000E+00  0.000000E+00  1.227527E-01 -4.701469E-10 -1.468514E-11  1.227527E-01                                                                                                                                                                                                                                                                                                                                                                                                                                                                                              
  1.435000E+03  1.250000E+02 -4.975000E+03  1.970462E-07 -2.679453E-16 -1.593027E-17  1.970462E-07  1.034802E-09 -1.406960E-18 -8.364865E-20  1.034802E-09  0.000000E+00  0.000000E+00  0.000000E+00  0.000000E+00  0.000000E+00  0.000000E+00  0.000000E+00  0.000000E+00  1.227527E-01 -1.630977E-10 -9.696723E-12  1.227527E-01                                                                                                                                                                                                                                                                                                                                                                                                                                                                                              
  1.250000E+02  1.250000E+02 -4.725000E+03  6.723355E-07  5.711743E-14 -6.954369E-15  6.723355E-07  3.513936E-09  2.987658E-16 -3.637642E-17  3.513936E-09  0.000000E+00  0.000000E+00  0.000000E+00  0.000000E+00  0.000000E+00  0.000000E+00  0.000000E+00  0.000000E+00  3.935114E-01  3.321389E-08 -4.043978E-09  3.935114E-01                                                                                                                                                                                                                                                                                                                                                                                                                                                                                              
  3.750000E+02  1.250000E+02 -4.725000E+03  6.723385E-07  1.723159E-13 -8.204596E-15  6.723385E-07  3.513951E-09  9.013380E-16 -4.291602E-17  3.513951E-09  0.000000E+00  0.000000E+00  0.000000E+00  0.000000E+00  0.000000E+00  0.000000E+00  0.000000E+00  0.000000E+00  3.935131E-01  1.002020E-07 -4.770987E-09  3.935131E-01                                                                                                                                                                                                                                                                                                                                                                                                                                                                                              
  6.250000E+02  1.250000E+02 -4.725000E+03  6.723447E-07  2.785312E-13 -9.176177E-15  6.723447E-07  3.513984E-09  1.456921E-15 -4.799809E-17  3.513984E-09  0.000000E+00  0.000000E+00  0.000000E+00  0.000000E+00  0.000000E+00  0.000000E+00  0.000000E+00  0.000000E+00  3.935168E-01  1.619664E-07 -5.335963E-09  3.935168E-01                                                                                                                                                                                                                                                                                                                                                                                                                                                                                              
  7.600000E+02  1.250000E+02 -4.725000E+03  6.723500E-07  2.195413E-13 -8.127490E-15  6.723500E-07  3.514012E-09  1.148361E-15 -4.251270E-17  3.514012E-09  0.000000E+00  0.000000E+00  0.000000E+00  0.000000E+00  0.000000E+00  0.000000E+00  0.000000E+00  0.000000E+00  3.935198E-01  1.276637E-07 -4.726150E-09  3.935198E-01                                                                                                                                                                                                                                                                                                                                                                                                                                                                                              
  7.800000E+02  1.250000E+02 -4.725000E+03  6.723502E-07  8.905072E-15 -8.010599E-15  6.723502E-07  3.514013E-09  4.658002E-17 -4.190127E-17  3.514013E-09  0.000000E+00  0.000000E+00  0.000000E+00  0.000000E+00  0.000000E+00  0.000000E+00  0.000000E+00  0.000000E+00  3.935199E-01  5.178315E-09 -4.658178E-09  3.935199E-01                                                                                                                                                                                                                                                                                                                                                                                                                                                                                              
  8.000000E+02  1.250000E+02 -4.725000E+03  6.723501E-07 -2.010901E-13 -7.898118E-15  6.723501E-07  3.514012E-09 -1.051848E-15 -4.131291E-17  3.514012E-09  0.000000E+00  0.000000E+00  0.000000E+00  0.000000E+00  0.000000E+00  0.000000E+00  0.000000E+00  0.000000E+00  3.935199E-01 -1.169342E-07 -4.592770E-09  3.935199E-01                                                                                                                                                                                                                                                                                                                                                                                                                                                                                              
  9.350000E+02  1.250000E+02 -4.725000E+03  6.723459E-07 -2.616400E-13 -6.537354E-15  6.723459E-07  3.513990E-09 -1.368568E-15 -3.419513E-17  3.513990E-09  0.000000E+00  0.000000E+00  0.000000E+00  0.000000E+00  0.000000E+00  0.000000E+00  0.000000E+00  0.000000E+00  3.935174E-01 -1.521441E-07 -3.801483E-09  3.935174E-01                                                                                                                                                                                                                                                                                                                                                                                                                                                                                              
  1.185000E+03  1.250000E+02 -4.725000E+03  6.723411E-07 -1.610043E-13 -4.611431E-15  6.723411E-07  3.513965E-09 -8.421697E-16 -2.412114E-17  3.513965E-09  0.000000E+00  0.000000E+00  0.000000E+00  0.000000E+00  0.000000E+00  0.000000E+00  0.000000E+00  0.000000E+00  3.935146E-01 -9.362427E-08 -2.681555E-09  3.935146E-01                                                                                                                                                                                                                                                                                                                                                                                                                                                                                              