Title="TOUGHREACT V3.30-OMP flowvector.tec: Liq & Gas Fluxes (kg/s/m^2), Pore Velocities (m/s), & Heat Fluxes (J/s/m2)"                                                                                                                                                                                                                                                                                                                                                                                                                                                                                                                                                                                                                                                                                                         
Variables= "X(m)"     "Y(m)"      "Z(m)"     "FluxLiq"   "FluxLiq_X"   "FluxLiq_Y"   "FluxLiq_Z"   "PorVelLiq"  "PorVelLiqX"  "PorVelLiqY"  "PorVelLiqZ"     "FluxGas"   "FluxGas_X"   "FluxGas_Y"   "FluxGas_Z"   "PorVelGas"  "PorVelGasX"  "PorVelGasY"  "PorVelGasZ"    "HeatFlux"  "HeatFlux_X"  "HeatFlux_Y"  "HeatFlux_Z"                                                                                                                                                                                                                                                                                                                                                                                                                                                                                                
Zone T= "5.00000000E-02 sec" I=     9 J=    10 K=    23 F=Point
  1.250000E+02  1.250000E+02 -5.425000E+03  3.526795E-07  0.000000E+00  0.000000E+00  3.526795E-07  1.992494E-09  0.000000E+00  0.000000E+00  1.992494E-09  0.000000E+00  0.000000E+00  0.000000E+00  0.000000E+00  0.000000E+00  0.000000E+00  0.000000E+00  0.000000E+00  3.355765E-01  0.000000E+00  0.000000E+00  3.355765E-01                                                                                                                                                                                                                                                                                                                                                                                                                                                                                              
  3.750000E+02  1.250000E+02 -5.425000E+03  3.526795E-07  0.000000E+00  0.000000E+00  3.526795E-07  1.992494E-09  0.000000E+00  0.000000E+00  1.992494E-09  0.000000E+00  0.000000E+00  0.000000E+00  0.000000E+00  0.000000E+00  0.000000E+00  0.000000E+00  0.000000E+00  3.355765E-01  0.000000E+00  0.000000E+00  3.355765E-01                                                                                                                                                                                                                                                                                                                                                                                                                                                                                              
  6.250000E+02  1.250000E+02 -5.425000E+03  3.526795E-07  0.000000E+00  0.000000E+00  3.526795E-07  1.992494E-09  0.000000E+00  0.000000E+00  1.992494E-09  0.000000E+00  0.000000E+00  0.000000E+00  0.000000E+00  0.000000E+00  0.000000E+00  0.000000E+00  0.000000E+00  3.355765E-01  0.000000E+00  0.000000E+00  3.355765E-01                                                                                                                                                                                                                                                                                                                                                                                                                                                                                              
  7.600000E+02  1.250000E+02 -5.425000E+03  3.526795E-07  0.000000E+00  0.000000E+00  3.526795E-07  1.992494E-09  0.000000E+00  0.000000E+00  1.992494E-09  0.000000E+00  0.000000E+00  0.000000E+00  0.000000E+00  0.000000E+00  0.000000E+00  0.000000E+00  0.000000E+00  3.355765E-01  0.000000E+00  0.000000E+00  3.355765E-01                                                                                                                                                                                                                                                                                                                                                                                                                                                                                              
  7.800000E+02  1.250000E+02 -5.425000E+03  3.526795E-07  0.000000E+00  0.000000E+00  3.526795E-07  1.992494E-09  0.000000E+00  0.000000E+00  1.992494E-09  0.000000E+00  0.000000E+00  0.000000E+00  0.000000E+00  0.000000E+00  0.000000E+00  0.000000E+00  0.000000E+00  3.355765E-01  0.000000E+00  0.000000E+00  3.355765E-01                                                                                                                                                                                                                                                                                                                                                                                                                                                                                              
  8.000000E+02  1.250000E+02 -5.425000E+03  3.526795E-07  0.000000E+00  0.000000E+00  3.526795E-07  1.992494E-09  0.000000E+00  0.000000E+00  1.992494E-09  0.000000E+00  0.000000E+00  0.000000E+00  0.000000E+00  0.000000E+00  0.000000E+00  0.000000E+00  0.000000E+00  3.355765E-01  0.000000E+00  0.000000E+00  3.355765E-01                                                                                                                                                                                                                                                                                                                                                                                                                                                                                              
  9.350000E+02  1.250000E+02 -5.425000E+03  3.526795E-07  0.000000E+00  0.000000E+00  3.526795E-07  1.992494E-09  0.000000E+00  0.000000E+00  1.992494E-09  0.000000E+00  0.000000E+00  0.000000E+00  0.000000E+00  0.000000E+00  0.000000E+00  0.000000E+00  0.000000E+00  3.355765E-01  0.000000E+00  0.000000E+00  3.355765E-01                                                                                                                                                                                                                                                                                                                                                                                                                                                                                              
  1.185000E+03  1.250000E+02 -5.425000E+03  3.526795E-07  0.000000E+00  0.000000E+00  3.526795E-07  1.992494E-09  0.000000E+00  0.000000E+00  1.992494E-09  0.000000E+00  0.000000E+00  0.000000E+00  0.000000E+00  0.000000E+00  0.000000E+00  0.000000E+00  0.000000E+00  3.355765E-01  0.000000E+00  0.000000E+00  3.355765E-01                                                                                                                                                                                                                                                                                                                                                                                                                                                                                              
  1.435000E+03  1.250000E+02 -5.425000E+03  3.526795E-07  0.000000E+00  0.000000E+00  3.526795E-07  1.992494E-09  0.000000E+00  0.000000E+00  1.992494E-09  0.000000E+00  0.000000E+00  0.000000E+00  0.000000E+00  0.000000E+00  0.000000E+00  0.000000E+00  0.000000E+00  3.355765E-01  0.000000E+00  0.000000E+00  3.355765E-01                                                                                                                                                                                                                                                                                                                                                                                                                                                                                              
  1.250000E+02  1.250000E+02 -5.225000E+03  6.751113E-07  0.000000E+00  0.000000E+00  6.751113E-07  3.799191E-09  0.000000E+00  0.000000E+00  3.799191E-09  0.000000E+00  0.000000E+00  0.000000E+00  0.000000E+00  0.000000E+00  0.000000E+00  0.000000E+00  0.000000E+00  6.316524E-01  0.000000E+00  0.000000E+00  6.316524E-01                                                                                                                                                                                                                                                                                                                                                                                                                                                                                              
  3.750000E+02  1.250000E+02 -5.225000E+03  6.751113E-07  0.000000E+00  0.000000E+00  6.751113E-07  3.799191E-09  0.000000E+00  0.000000E+00  3.799191E-09  0.000000E+00  0.000000E+00  0.000000E+00  0.000000E+00  0.000000E+00  0.000000E+00  0.000000E+00  0.000000E+00  6.316524E-01  0.000000E+00  0.000000E+00  6.316524E-01                                                                                                                                                                                                                                                                                                                                                                                                                                                                                              
  6.250000E+02  1.250000E+02 -5.225000E+03  6.751113E-07  0.000000E+00  0.000000E+00  6.751113E-07  3.799191E-09  0.000000E+00  0.000000E+00  3.799191E-09  0.000000E+00  0.000000E+00  0.000000E+00  0.000000E+00  0.000000E+00  0.000000E+00  0.000000E+00  0.000000E+00  6.316524E-01  0.000000E+00  0.000000E+00  6.316524E-01                                                                                                                                                                                                                                                                                                                                                                                                                                                                                              
  7.600000E+02  1.250000E+02 -5.225000E+03  6.751113E-07  0.000000E+00  0.000000E+00  6.751113E-07  3.799191E-09  0.000000E+00  0.000000E+00  3.799191E-09  0.000000E+00  0.000000E+00  0.000000E+00  0.000000E+00  0.000000E+00  0.000000E+00  0.000000E+00  0.000000E+00  6.316524E-01  0.000000E+00  0.000000E+00  6.316524E-01                                                                                                                                                                                                                                                                                                                                                                                                                                                                                              
  7.800000E+02  1.250000E+02 -5.225000E+03  6.751113E-07  0.000000E+00  0.000000E+00  6.751113E-07  3.799191E-09  0.000000E+00  0.000000E+00  3.799191E-09  0.000000E+00  0.000000E+00  0.000000E+00  0.000000E+00  0.000000E+00  0.000000E+00  0.000000E+00  0.000000E+00  6.316524E-01  0.000000E+00  0.000000E+00  6.316524E-01                                                                                                                                                                                                                                                                                                                                                                                                                                                                                              
  8.000000E+02  1.250000E+02 -5.225000E+03  6.751113E-07  0.000000E+00  0.000000E+00  6.751113E-07  3.799191E-09  0.000000E+00  0.000000E+00  3.799191E-09  0.000000E+00  0.000000E+00  0.000000E+00  0.000000E+00  0.000000E+00  0.000000E+00  0.000000E+00  0.000000E+00  6.316524E-01  0.000000E+00  0.000000E+00  6.316524E-01                                                                                                                                                                                                                                                                                                                                                                                                                                                                                              
  9.350000E+02  1.250000E+02 -5.225000E+03  6.751113E-07  0.000000E+00  0.000000E+00  6.751113E-07  3.799191E-09  0.000000E+00  0.000000E+00  3.799191E-09  0.000000E+00  0.000000E+00  0.000000E+00  0.000000E+00  0.000000E+00  0.000000E+00  0.000000E+00  0.000000E+00  6.316524E-01  0.000000E+00  0.000000E+00  6.316524E-01                                                                                                                                                                                                                                                                                                                                                                                                                                                                                              
  1.185000E+03  1.250000E+02 -5.225000E+03  6.751113E-07  0.000000E+00  0.000000E+00  6.751113E-07  3.799191E-09  0.000000E+00  0.000000E+00  3.799191E-09  0.000000E+00  0.000000E+00  0.000000E+00  0.000000E+00  0.000000E+00  0.000000E+00  0.000000E+00  0.000000E+00  6.316524E-01  0.000000E+00  0.000000E+00  6.316524E-01                                                                                                                                                                                                                                                                                                                                                                                                                                                                                              
  1.435000E+03  1.250000E+02 -5.225000E+03  6.751113E-07  0.000000E+00  0.000000E+00  6.751113E-07  3.799191E-09  0.000000E+00  0.000000E+00  3.799191E-09  0.000000E+00  0.000000E+00  0.000000E+00  0.000000E+00  0.000000E+00  0.000000E+00  0.000000E+00  0.000000E+00  6.316524E-01  0.000000E+00  0.000000E+00  6.316524E-01                                                                                                                                                                                                                                                                                                                                                                                                                                                                                              
  1.250000E+02  1.250000E+02 -4.975000E+03  6.111265E-07  0.000000E+00  0.000000E+00  6.111265E-07  3.410090E-09  0.000000E+00  0.000000E+00  3.410090E-09  0.000000E+00  0.000000E+00  0.000000E+00  0.000000E+00  0.000000E+00  0.000000E+00  0.000000E+00  0.000000E+00  5.492020E-01  0.000000E+00  0.000000E+00  5.492020E-01                                                                                                                                                                                                                                                                                                                                                                                                                                                                                              
  3.750000E+02  1.250000E+02 -4.975000E+03  6.111265E-07  0.000000E+00  0.000000E+00  6.111265E-07  3.410090E-09  0.000000E+00  0.000000E+00  3.410090E-09  0.000000E+00  0.000000E+00  0.000000E+00  0.000000E+00  0.000000E+00  0.000000E+00  0.000000E+00  0.000000E+00  5.492020E-01  0.000000E+00  0.000000E+00  5.492020E-01                                                                                                                                                                                                                                                                                                                                                                                                                                                                                              
  6.250000E+02  1.250000E+02 -4.975000E+03  6.111265E-07  0.000000E+00  0.000000E+00  6.111265E-07  3.410090E-09  0.000000E+00  0.000000E+00  3.410090E-09  0.000000E+00  0.000000E+00  0.000000E+00  0.000000E+00  0.000000E+00  0.000000E+00  0.000000E+00  0.000000E+00  5.492020E-01  0.000000E+00  0.000000E+00  5.492020E-01                                                                                                                                                                                                                                                                                                                                                                                                                                                                                              
  7.600000E+02  1.250000E+02 -4.975000E+03  6.111265E-07  0.000000E+00  0.000000E+00  6.111265E-07  3.410090E-09  0.000000E+00  0.000000E+00  3.410090E-09  0.000000E+00  0.000000E+00  0.000000E+00  0.000000E+00  0.000000E+00  0.000000E+00  0.000000E+00  0.000000E+00  5.492020E-01  0.000000E+00  0.000000E+00  5.492020E-01                                                                                                                                                                                                                                                                                                                                                                                                                                                                                              
  7.800000E+02  1.250000E+02 -4.975000E+03  6.111265E-07  0.000000E+00  0.000000E+00  6.111265E-07  3.410090E-09  0.000000E+00  0.000000E+00  3.410090E-09  0.000000E+00  0.000000E+00  0.000000E+00  0.000000E+00  0.000000E+00  0.000000E+00  0.000000E+00  0.000000E+00  5.492020E-01  0.000000E+00  0.000000E+00  5.492020E-01                                                                                                                                                                                                                                                                                                                                                                                                                                                                                              
  8.000000E+02  1.250000E+02 -4.975000E+03  6.111265E-07  0.000000E+00  0.000000E+00  6.111265E-07  3.410090E-09  0.000000E+00  0.000000E+00  3.410090E-09  0.000000E+00  0.000000E+00  0.000000E+00  0.000000E+00  0.000000E+00  0.000000E+00  0.000000E+00  0.000000E+00  5.492020E-01  0.000000E+00  0.000000E+00  5.492020E-01                                                                                                                                                                                                                                                                                                                                                                                                                                                                                              
  9.350000E+02  1.250000E+02 -4.975000E+03  6.111265E-07  0.000000E+00  0.000000E+00  6.111265E-07  3.410090E-09  0.000000E+00  0.000000E+00  3.410090E-09  0.000000E+00  0.000000E+00  0.000000E+00  0.000000E+00  0.000000E+00  0.000000E+00  0.000000E+00  0.000000E+00  5.492020E-01  0.000000E+00  0.000000E+00  5.492020E-01                                                                                                                                                                                                                                                                                                                                                                                                                                                                                              
  1.185000E+03  1.250000E+02 -4.975000E+03  6.111265E-07  0.000000E+00  0.000000E+00  6.111265E-07  3.410090E-09  0.000000E+00  0.000000E+00  3.410090E-09  0.000000E+00  0.000000E+00  0.000000E+00  0.000000E+00  0.000000E+00  0.000000E+00  0.000000E+00  0.000000E+00  5.492020E-01  0.000000E+00  0.000000E+00  5.492020E-01                                                                                                                                                                                                                                                                                                                                                                                                                                                                                              
  1.435000E+03  1.250000E+02 -4.975000E+03  6.111265E-07  0.000000E+00  0.000000E+00  6.111265E-07  3.410090E-09  0.000000E+00  0.000000E+00  3.410090E-09  0.000000E+00  0.000000E+00  0.000000E+00  0.000000E+00  0.000000E+00  0.000000E+00  0.000000E+00  0.000000E+00  5.492020E-01  0.000000E+00  0.000000E+00  5.492020E-01                                                                                                                                                                                                                                                                                                                                                                                                                                                                                              
  1.250000E+02  1.250000E+02 -4.725000E+03  6.519257E-07  0.000000E+00  0.000000E+00  6.519257E-07  3.606069E-09  0.000000E+00  0.000000E+00  3.606069E-09  0.000000E+00  0.000000E+00  0.000000E+00  0.000000E+00  0.000000E+00  0.000000E+00  0.000000E+00  0.000000E+00  5.565055E-01  0.000000E+00  0.000000E+00  5.565055E-01                                                                                                                                                                                                                                                                                                                                                                                                                                                                                              
  3.750000E+02  1.250000E+02 -4.725000E+03  6.519257E-07  0.000000E+00  0.000000E+00  6.519257E-07  3.606069E-09  0.000000E+00  0.000000E+00  3.606069E-09  0.000000E+00  0.000000E+00  0.000000E+00  0.000000E+00  0.000000E+00  0.000000E+00  0.000000E+00  0.000000E+00  5.565055E-01  0.000000E+00  0.000000E+00  5.565055E-01                                                                                                                                                                                                                                                                                                                                                                                                                                                                                              
  6.250000E+02  1.250000E+02 -4.725000E+03  6.519270E-07  1.322319E-19  0.000000E+00  6.519270E-07  3.606076E-09  7.312244E-22  0.000000E+00  3.606076E-09  0.000000E+00  0.000000E+00  0.000000E+00  0.000000E+00  0.000000E+00  0.000000E+00  0.000000E+00  0.000000E+00  5.565066E-01  1.103750E-13  0.000000E+00  5.565066E-01                                                                                                                                                                                                                                                                                                                                                                                                                                                                                              
  7.600000E+02  1.250000E+02 -4.725000E+03  6.520298E-07  2.438025E-19  0.000000E+00  6.520298E-07  3.606642E-09  1.348195E-21  0.000000E+00  3.606642E-09  0.000000E+00  0.000000E+00  0.000000E+00  0.000000E+00  0.000000E+00  0.000000E+00  0.000000E+00  0.000000E+00  5.565924E-01  2.035039E-13  0.000000E+00  5.565924E-01                                                                                                                                                                                                                                                                                                                                                                                                                                                                                              
  7.800000E+02  1.250000E+02 -4.725000E+03  6.520336E-07  0.000000E+00  0.000000E+00  6.520336E-07  3.606664E-09  0.000000E+00  0.000000E+00  3.606664E-09  0.000000E+00  0.000000E+00  0.000000E+00  0.000000E+00  0.000000E+00  0.000000E+00  0.000000E+00  0.000000E+00  5.565956E-01  0.000000E+00  0.000000E+00  5.565956E-01                                                                                                                                                                                                                                                                                                                                                                                                                                                                                              
  8.000000E+02  1.250000E+02 -4.725000E+03  6.520298E-07 -2.438025E-19  0.000000E+00  6.520298E-07  3.606642E-09 -1.348195E-21  0.000000E+00  3.606642E-09  0.000000E+00  0.000000E+00  0.000000E+00  0.000000E+00  0.000000E+00  0.000000E+00  0.000000E+00  0.000000E+00  5.565924E-01 -2.035039E-13  0.000000E+00  5.565924E-01                                                                                                                                                                                                                                                                                                                                                                                                                                                                                              
  9.350000E+02  1.250000E+02 -4.725000E+03  6.519270E-07 -1.322319E-19  0.000000E+00  6.519270E-07  3.606076E-09 -7.312244E-22  0.000000E+00  3.606076E-09  0.000000E+00  0.000000E+00  0.000000E+00  0.000000E+00  0.000000E+00  0.000000E+00  0.000000E+00  0.000000E+00  5.565066E-01 -1.103750E-13  0.000000E+00  5.565066E-01                                                                                                                                                                                                                                                                                                                                                                                                                                                                                              
  1.185000E+03  1.250000E+02 -4.725000E+03  6.519257E-07  0.000000E+00  0.000000E+00  6.519257E-07  3.606069E-09  0.000000E+00  0.000000E+00  3.606069E-09  0.000000E+00  0.000000E+00  0.000000E+00  0.000000E+00  0.000000E+00  0.000000E+00  0.000000E+00  0.000000E+00  5.565055E-01  0.000000E+00  0.000000E+00  5.565055E-01                                                                                                                                                                                                                                                                                                                                                                                                                                                                                              