Title="TOUGHREACT V3.30-OMP flowvector.tec: Liq & Gas Fluxes (kg/s/m^2), Pore Velocities (m/s), & Heat Fluxes (J/s/m2)"                                                                                                                                                                                                                                                                                                                                                                                                                                                                                                                                                                                                                                                                                                         
Variables= "X(m)"     "Y(m)"      "Z(m)"     "FluxLiq"   "FluxLiq_X"   "FluxLiq_Y"   "FluxLiq_Z"   "PorVelLiq"  "PorVelLiqX"  "PorVelLiqY"  "PorVelLiqZ"     "FluxGas"   "FluxGas_X"   "FluxGas_Y"   "FluxGas_Z"   "PorVelGas"  "PorVelGasX"  "PorVelGasY"  "PorVelGasZ"    "HeatFlux"  "HeatFlux_X"  "HeatFlux_Y"  "HeatFlux_Z"                                                                                                                                                                                                                                                                                                                                                                                                                                                                                                
Zone T= "7.66000000E+10 sec" I=     9 J=    10 K=    23 F=Point
  1.250000E+02  1.250000E+02 -5.425000E+03  3.810476E-09 -1.625224E-11 -4.113046E-11  3.810220E-09  2.244789E-11 -9.733507E-14 -2.463314E-13  2.244633E-11  0.000000E+00  0.000000E+00  0.000000E+00  0.000000E+00  0.000000E+00  0.000000E+00  0.000000E+00  0.000000E+00  4.385688E-03 -1.870561E-05 -4.733935E-05  4.385393E-03                                                                                                                                                                                                                                                                                                                                                                                                                                                                                              
  3.750000E+02  1.250000E+02 -5.425000E+03  3.787759E-09 -9.950780E-12 -4.209095E-11  3.787512E-09  2.231405E-11 -5.959546E-14 -2.520838E-13  2.231255E-11  0.000000E+00  0.000000E+00  0.000000E+00  0.000000E+00  0.000000E+00  0.000000E+00  0.000000E+00  0.000000E+00  4.359544E-03 -1.145291E-05 -4.844487E-05  4.359260E-03                                                                                                                                                                                                                                                                                                                                                                                                                                                                                              
  6.250000E+02  1.250000E+02 -5.425000E+03  3.766387E-09  7.492267E-11 -4.503968E-11  3.765373E-09  2.218831E-11  4.487139E-13 -2.697438E-13  2.218213E-11  0.000000E+00  0.000000E+00  0.000000E+00  0.000000E+00  0.000000E+00  0.000000E+00  0.000000E+00  0.000000E+00  4.334949E-03  8.623275E-05 -5.183876E-05  4.333781E-03                                                                                                                                                                                                                                                                                                                                                                                                                                                                                              
  7.600000E+02  1.250000E+02 -5.425000E+03  3.777356E-09  1.411451E-10 -4.635934E-11  3.774433E-09  2.225330E-11  8.453221E-13 -2.776474E-13  2.223551E-11  0.000000E+00  0.000000E+00  0.000000E+00  0.000000E+00  0.000000E+00  0.000000E+00  0.000000E+00  0.000000E+00  4.347572E-03  1.624519E-04 -5.335763E-05  4.344208E-03                                                                                                                                                                                                                                                                                                                                                                                                                                                                                              
  7.800000E+02  1.250000E+02 -5.425000E+03  3.779199E-09  1.487510E-10 -4.656508E-11  3.775984E-09  2.226422E-11  8.908737E-13 -2.788795E-13  2.224464E-11  0.000000E+00  0.000000E+00  0.000000E+00  0.000000E+00  0.000000E+00  0.000000E+00  0.000000E+00  0.000000E+00  4.349694E-03  1.712059E-04 -5.359441E-05  4.345993E-03                                                                                                                                                                                                                                                                                                                                                                                                                                                                                              
  8.000000E+02  1.250000E+02 -5.425000E+03  3.781244E-09  1.559475E-10 -4.678347E-11  3.777737E-09  2.227632E-11  9.339736E-13 -2.801875E-13  2.225497E-11  0.000000E+00  0.000000E+00  0.000000E+00  0.000000E+00  0.000000E+00  0.000000E+00  0.000000E+00  0.000000E+00  4.352047E-03  1.794887E-04 -5.384578E-05  4.348011E-03                                                                                                                                                                                                                                                                                                                                                                                                                                                                                              
  9.350000E+02  1.250000E+02 -5.425000E+03  3.795381E-09  1.830493E-10 -4.835254E-11  3.790656E-09  2.235985E-11  1.096287E-12 -2.895847E-13  2.233108E-11  0.000000E+00  0.000000E+00  0.000000E+00  0.000000E+00  0.000000E+00  0.000000E+00  0.000000E+00  0.000000E+00  4.368317E-03  2.106817E-04 -5.565168E-05  4.362878E-03                                                                                                                                                                                                                                                                                                                                                                                                                                                                                              
  1.185000E+03  1.250000E+02 -5.425000E+03  3.829355E-09  1.797783E-10 -5.479760E-11  3.824740E-09  2.255999E-11  1.076697E-12 -3.281843E-13  2.253189E-11  0.000000E+00  0.000000E+00  0.000000E+00  0.000000E+00  0.000000E+00  0.000000E+00  0.000000E+00  0.000000E+00  4.407416E-03  2.069169E-04 -6.306962E-05  4.402105E-03                                                                                                                                                                                                                                                                                                                                                                                                                                                                                              
  1.435000E+03  1.250000E+02 -5.425000E+03  3.858629E-09  7.644946E-11 -5.959677E-11  3.857411E-09  2.273179E-11  4.578579E-13 -3.569267E-13  2.272438E-11  0.000000E+00  0.000000E+00  0.000000E+00  0.000000E+00  0.000000E+00  0.000000E+00  0.000000E+00  0.000000E+00  4.441108E-03  8.798992E-05 -6.859321E-05  4.439707E-03                                                                                                                                                                                                                                                                                                                                                                                                                                                                                              
  1.250000E+02  1.250000E+02 -5.225000E+03  7.758031E-09 -3.235329E-11 -5.120037E-11  7.757795E-09  4.517636E-11 -1.874413E-13 -2.966334E-13  4.517499E-11  0.000000E+00  0.000000E+00  0.000000E+00  0.000000E+00  0.000000E+00  0.000000E+00  0.000000E+00  0.000000E+00  8.498250E-03 -3.370595E-05 -5.334103E-05  8.498016E-03                                                                                                                                                                                                                                                                                                                                                                                                                                                                                              
  3.750000E+02  1.250000E+02 -5.225000E+03  7.660087E-09 -4.305929E-11 -5.282066E-11  7.659784E-09  4.460938E-11 -2.494674E-13 -3.060206E-13  4.460763E-11  0.000000E+00  0.000000E+00  0.000000E+00  0.000000E+00  0.000000E+00  0.000000E+00  0.000000E+00  0.000000E+00  8.393729E-03 -4.485955E-05 -5.502905E-05  8.393429E-03                                                                                                                                                                                                                                                                                                                                                                                                                                                                                              
  6.250000E+02  1.250000E+02 -5.225000E+03  7.555589E-09  6.672464E-11 -5.906384E-11  7.555063E-09  4.400474E-11  3.865744E-13 -3.421909E-13  4.400171E-11  0.000000E+00  0.000000E+00  0.000000E+00  0.000000E+00  0.000000E+00  0.000000E+00  0.000000E+00  0.000000E+00  8.282435E-03  6.951432E-05 -6.153324E-05  8.281914E-03                                                                                                                                                                                                                                                                                                                                                                                                                                                                                              
  7.600000E+02  1.250000E+02 -5.225000E+03  7.593698E-09  1.604635E-10 -5.946536E-11  7.591770E-09  4.422539E-11  9.296577E-13 -3.445172E-13  4.421428E-11  0.000000E+00  0.000000E+00  0.000000E+00  0.000000E+00  0.000000E+00  0.000000E+00  0.000000E+00  0.000000E+00  8.323055E-03  1.671723E-04 -6.195156E-05  8.321145E-03                                                                                                                                                                                                                                                                                                                                                                                                                                                                                              
  7.800000E+02  1.250000E+02 -5.225000E+03  7.600694E-09  1.713828E-10 -5.954513E-11  7.598528E-09  4.426588E-11  9.929198E-13 -3.449794E-13  4.425340E-11  0.000000E+00  0.000000E+00  0.000000E+00  0.000000E+00  0.000000E+00  0.000000E+00  0.000000E+00  0.000000E+00  8.330500E-03  1.785482E-04 -6.203467E-05  8.328356E-03                                                                                                                                                                                                                                                                                                                                                                                                                                                                                              
  8.000000E+02  1.250000E+02 -5.225000E+03  7.610544E-09  1.815379E-10 -5.965169E-11  7.608145E-09  4.432284E-11  1.051754E-12 -3.455968E-13  4.430901E-11  0.000000E+00  0.000000E+00  0.000000E+00  0.000000E+00  0.000000E+00  0.000000E+00  0.000000E+00  0.000000E+00  8.340942E-03  1.891279E-04 -6.214568E-05  8.338566E-03                                                                                                                                                                                                                                                                                                                                                                                                                                                                                              
  9.350000E+02  1.250000E+02 -5.225000E+03  7.669178E-09  2.159082E-10 -6.051129E-11  7.665900E-09  4.466218E-11  1.250882E-12 -3.505771E-13  4.464329E-11  0.000000E+00  0.000000E+00  0.000000E+00  0.000000E+00  0.000000E+00  0.000000E+00  0.000000E+00  0.000000E+00  8.403396E-03  2.249353E-04 -6.304125E-05  8.400148E-03                                                                                                                                                                                                                                                                                                                                                                                                                                                                                              
  1.185000E+03  1.250000E+02 -5.225000E+03  7.803944E-09  2.184949E-10 -7.021257E-11  7.800569E-09  4.544274E-11  1.265870E-12 -4.067826E-13  4.542328E-11  0.000000E+00  0.000000E+00  0.000000E+00  0.000000E+00  0.000000E+00  0.000000E+00  0.000000E+00  0.000000E+00  8.547522E-03  2.276306E-04 -7.314824E-05  8.544177E-03                                                                                                                                                                                                                                                                                                                                                                                                                                                                                              
  1.435000E+03  1.250000E+02 -5.225000E+03  7.942316E-09  9.577467E-11 -7.653776E-11  7.941369E-09  4.624386E-11  5.548794E-13 -4.434287E-13  4.623841E-11  0.000000E+00  0.000000E+00  0.000000E+00  0.000000E+00  0.000000E+00  0.000000E+00  0.000000E+00  0.000000E+00  8.695383E-03  9.977934E-05 -7.973808E-05  8.694445E-03                                                                                                                                                                                                                                                                                                                                                                                                                                                                                              
  1.250000E+02  1.250000E+02 -4.975000E+03  8.133502E-09 -1.017068E-10 -1.013565E-10  8.132235E-09  4.650233E-11 -5.813829E-13 -5.793804E-13  4.649509E-11  0.000000E+00  0.000000E+00  0.000000E+00  0.000000E+00  0.000000E+00  0.000000E+00  0.000000E+00  0.000000E+00  8.269677E-03 -1.010054E-04 -1.006576E-04  8.268448E-03                                                                                                                                                                                                                                                                                                                                                                                                                                                                                              
  3.750000E+02  1.250000E+02 -4.975000E+03  7.873500E-09 -1.897030E-10 -1.059515E-10  7.870501E-09  4.501815E-11 -1.084391E-12 -6.056458E-13  4.500101E-11  0.000000E+00  0.000000E+00  0.000000E+00  0.000000E+00  0.000000E+00  0.000000E+00  0.000000E+00  0.000000E+00  8.007734E-03 -1.883943E-04 -1.052207E-04  8.004826E-03                                                                                                                                                                                                                                                                                                                                                                                                                                                                                              
  6.250000E+02  1.250000E+02 -4.975000E+03  7.539953E-09  3.568975E-11 -1.375353E-10  7.538614E-09  4.311530E-11  2.040112E-13 -7.861851E-13  4.310765E-11  0.000000E+00  0.000000E+00  0.000000E+00  0.000000E+00  0.000000E+00  0.000000E+00  0.000000E+00  0.000000E+00  7.672482E-03  3.544345E-05 -1.365856E-04  7.671185E-03                                                                                                                                                                                                                                                                                                                                                                                                                                                                                              
  7.600000E+02  1.250000E+02 -4.975000E+03  7.565716E-09  2.662526E-10 -1.277986E-10  7.559950E-09  4.326398E-11  1.521967E-12 -7.305281E-13  4.323103E-11  0.000000E+00  0.000000E+00  0.000000E+00  0.000000E+00  0.000000E+00  0.000000E+00  0.000000E+00  0.000000E+00  7.699314E-03  2.644153E-04 -1.269164E-04  7.693725E-03                                                                                                                                                                                                                                                                                                                                                                                                                                                                                              
  7.800000E+02  1.250000E+02 -4.975000E+03  7.569365E-09  3.045881E-10 -1.267578E-10  7.562172E-09  4.328515E-11  1.741103E-12 -7.245792E-13  4.324405E-11  0.000000E+00  0.000000E+00  0.000000E+00  0.000000E+00  0.000000E+00  0.000000E+00  0.000000E+00  0.000000E+00  7.703157E-03  3.024864E-04 -1.258829E-04  7.696186E-03                                                                                                                                                                                                                                                                                                                                                                                                                                                                                              
  8.000000E+02  1.250000E+02 -4.975000E+03  7.750653E-09  3.302877E-10 -1.262905E-10  7.742583E-09  4.431660E-11  1.888009E-12 -7.219084E-13  4.427048E-11  0.000000E+00  0.000000E+00  0.000000E+00  0.000000E+00  0.000000E+00  0.000000E+00  0.000000E+00  0.000000E+00  7.883575E-03  3.280092E-04 -1.254189E-04  7.875750E-03                                                                                                                                                                                                                                                                                                                                                                                                                                                                                              
  9.350000E+02  1.250000E+02 -4.975000E+03  7.872584E-09  3.791765E-10 -1.209561E-10  7.862517E-09  4.501335E-11  2.167474E-12 -6.914165E-13  4.495581E-11  0.000000E+00  0.000000E+00  0.000000E+00  0.000000E+00  0.000000E+00  0.000000E+00  0.000000E+00  0.000000E+00  8.006816E-03  3.765620E-04 -1.201219E-04  7.997054E-03                                                                                                                                                                                                                                                                                                                                                                                                                                                                                              
  1.185000E+03  1.250000E+02 -4.975000E+03  8.169429E-09  4.006584E-10 -1.512597E-10  8.158196E-09  4.670918E-11  2.290277E-12 -8.646417E-13  4.664499E-11  0.000000E+00  0.000000E+00  0.000000E+00  0.000000E+00  0.000000E+00  0.000000E+00  0.000000E+00  0.000000E+00  8.306546E-03  3.978983E-04 -1.502171E-04  8.295650E-03                                                                                                                                                                                                                                                                                                                                                                                                                                                                                              
  1.435000E+03  1.250000E+02 -4.975000E+03  8.557774E-09  1.897482E-10 -1.619302E-10  8.554137E-09  4.892596E-11  1.084657E-12 -9.256413E-13  4.890518E-11  0.000000E+00  0.000000E+00  0.000000E+00  0.000000E+00  0.000000E+00  0.000000E+00  0.000000E+00  0.000000E+00  8.697744E-03  1.884421E-04 -1.608157E-04  8.694215E-03                                                                                                                                                                                                                                                                                                                                                                                                                                                                                              
  1.250000E+02  1.250000E+02 -4.725000E+03  8.543033E-09 -7.249211E-11 -6.511259E-11  8.542477E-09  4.692870E-11 -4.086757E-13 -3.670762E-13  4.692548E-11  0.000000E+00  0.000000E+00  0.000000E+00  0.000000E+00  0.000000E+00  0.000000E+00  0.000000E+00  0.000000E+00  8.257081E-03 -6.817809E-05 -6.124126E-05  8.256572E-03                                                                                                                                                                                                                                                                                                                                                                                                                                                                                              
  3.750000E+02  1.250000E+02 -4.725000E+03  8.089952E-09 -1.279571E-10 -7.423940E-11  8.088599E-09  4.444944E-11 -7.213098E-13 -4.184714E-13  4.444162E-11  0.000000E+00  0.000000E+00  0.000000E+00  0.000000E+00  0.000000E+00  0.000000E+00  0.000000E+00  0.000000E+00  7.818845E-03 -1.203044E-04 -6.978874E-05  7.817608E-03                                                                                                                                                                                                                                                                                                                                                                                                                                                                                              
  6.250000E+02  1.250000E+02 -4.725000E+03  7.468567E-09  4.656214E-11 -9.341441E-11  7.467838E-09  4.105185E-11  2.623982E-13 -5.264267E-13  4.104763E-11  0.000000E+00  0.000000E+00  0.000000E+00  0.000000E+00  0.000000E+00  0.000000E+00  0.000000E+00  0.000000E+00  7.218773E-03  4.375935E-05 -8.770692E-05  7.218107E-03                                                                                                                                                                                                                                                                                                                                                                                                                                                                                              
  7.600000E+02  1.250000E+02 -4.725000E+03  7.407961E-09  2.208091E-10 -9.424190E-11  7.404069E-09  4.072903E-11  1.244496E-12 -5.311179E-13  4.070655E-11  0.000000E+00  0.000000E+00  0.000000E+00  0.000000E+00  0.000000E+00  0.000000E+00  0.000000E+00  0.000000E+00  7.161427E-03  2.075185E-04 -8.852046E-05  7.157872E-03                                                                                                                                                                                                                                                                                                                                                                                                                                                                                              
  7.800000E+02  1.250000E+02 -4.725000E+03  7.385342E-09  2.557948E-10 -9.490565E-11  7.380300E-09  4.060827E-11  1.441724E-12 -5.348637E-13  4.057914E-11  0.000000E+00  0.000000E+00  0.000000E+00  0.000000E+00  0.000000E+00  0.000000E+00  0.000000E+00  0.000000E+00  7.139967E-03  2.403988E-04 -8.915114E-05  7.135362E-03                                                                                                                                                                                                                                                                                                                                                                                                                                                                                              
  8.000000E+02  1.250000E+02 -4.725000E+03  7.973321E-09  2.729950E-10 -9.625864E-11  7.968065E-09  4.379889E-11  1.538777E-12 -5.425274E-13  4.376849E-11  0.000000E+00  0.000000E+00  0.000000E+00  0.000000E+00  0.000000E+00  0.000000E+00  0.000000E+00  0.000000E+00  7.703489E-03  2.566211E-04 -9.043082E-05  7.698683E-03                                                                                                                                                                                                                                                                                                                                                                                                                                                                                              
  9.350000E+02  1.250000E+02 -4.725000E+03  8.099321E-09  2.878515E-10 -1.000519E-10  8.093586E-09  4.449785E-11  1.622685E-12 -5.639629E-13  4.446468E-11  0.000000E+00  0.000000E+00  0.000000E+00  0.000000E+00  0.000000E+00  0.000000E+00  0.000000E+00  0.000000E+00  7.826830E-03  2.706812E-04 -9.404689E-05  7.821582E-03                                                                                                                                                                                                                                                                                                                                                                                                                                                                                              
  1.185000E+03  1.250000E+02 -4.725000E+03  8.538965E-09  2.910555E-10 -1.202562E-10  8.533156E-09  4.691036E-11  1.640986E-12 -6.779324E-13  4.687675E-11  0.000000E+00  0.000000E+00  0.000000E+00  0.000000E+00  0.000000E+00  0.000000E+00  0.000000E+00  0.000000E+00  8.253233E-03  2.738081E-04 -1.130739E-04  8.247915E-03                                                                                                                                                                                                                                                                                                                                                                                                                                                                                              