Title="TOUGHREACT V3.30-OMP flowvector.tec: Liq & Gas Fluxes (kg/s/m^2), Pore Velocities (m/s), & Heat Fluxes (J/s/m2)"                                                                                                                                                                                                                                                                                                                                                                                                                                                                                                                                                                                                                                                                                                         
Variables= "X(m)"     "Y(m)"      "Z(m)"     "FluxLiq"   "FluxLiq_X"   "FluxLiq_Y"   "FluxLiq_Z"   "PorVelLiq"  "PorVelLiqX"  "PorVelLiqY"  "PorVelLiqZ"     "FluxGas"   "FluxGas_X"   "FluxGas_Y"   "FluxGas_Z"   "PorVelGas"  "PorVelGasX"  "PorVelGasY"  "PorVelGasZ"    "HeatFlux"  "HeatFlux_X"  "HeatFlux_Y"  "HeatFlux_Z"                                                                                                                                                                                                                                                                                                                                                                                                                                                                                                
Zone T= "5.00000000E-02 sec" I=     9 J=    10 K=    23 F=Point
  1.250000E+02  1.250000E+02 -5.425000E+03  4.959707E-07  0.000000E+00  0.000000E+00  4.959707E-07  2.909464E-09  0.000000E+00  0.000000E+00  2.909464E-09  0.000000E+00  0.000000E+00  0.000000E+00  0.000000E+00  0.000000E+00  0.000000E+00  0.000000E+00  0.000000E+00  5.354962E-01  0.000000E+00  0.000000E+00  5.354962E-01                                                                                                                                                                                                                                                                                                                                                                                                                                                                                              
  3.750000E+02  1.250000E+02 -5.425000E+03  4.959707E-07  0.000000E+00  0.000000E+00  4.959707E-07  2.909464E-09  0.000000E+00  0.000000E+00  2.909464E-09  0.000000E+00  0.000000E+00  0.000000E+00  0.000000E+00  0.000000E+00  0.000000E+00  0.000000E+00  0.000000E+00  5.354962E-01  0.000000E+00  0.000000E+00  5.354962E-01                                                                                                                                                                                                                                                                                                                                                                                                                                                                                              
  6.250000E+02  1.250000E+02 -5.425000E+03  4.959707E-07  0.000000E+00  0.000000E+00  4.959707E-07  2.909464E-09  0.000000E+00  0.000000E+00  2.909464E-09  0.000000E+00  0.000000E+00  0.000000E+00  0.000000E+00  0.000000E+00  0.000000E+00  0.000000E+00  0.000000E+00  5.354962E-01  0.000000E+00  0.000000E+00  5.354962E-01                                                                                                                                                                                                                                                                                                                                                                                                                                                                                              
  7.600000E+02  1.250000E+02 -5.425000E+03  4.959707E-07  0.000000E+00  0.000000E+00  4.959707E-07  2.909464E-09  0.000000E+00  0.000000E+00  2.909464E-09  0.000000E+00  0.000000E+00  0.000000E+00  0.000000E+00  0.000000E+00  0.000000E+00  0.000000E+00  0.000000E+00  5.354962E-01  0.000000E+00  0.000000E+00  5.354962E-01                                                                                                                                                                                                                                                                                                                                                                                                                                                                                              
  7.800000E+02  1.250000E+02 -5.425000E+03  4.959707E-07  0.000000E+00  0.000000E+00  4.959707E-07  2.909464E-09  0.000000E+00  0.000000E+00  2.909464E-09  0.000000E+00  0.000000E+00  0.000000E+00  0.000000E+00  0.000000E+00  0.000000E+00  0.000000E+00  0.000000E+00  5.354962E-01  0.000000E+00  0.000000E+00  5.354962E-01                                                                                                                                                                                                                                                                                                                                                                                                                                                                                              
  8.000000E+02  1.250000E+02 -5.425000E+03  4.959707E-07  0.000000E+00  0.000000E+00  4.959707E-07  2.909464E-09  0.000000E+00  0.000000E+00  2.909464E-09  0.000000E+00  0.000000E+00  0.000000E+00  0.000000E+00  0.000000E+00  0.000000E+00  0.000000E+00  0.000000E+00  5.354962E-01  0.000000E+00  0.000000E+00  5.354962E-01                                                                                                                                                                                                                                                                                                                                                                                                                                                                                              
  9.350000E+02  1.250000E+02 -5.425000E+03  4.959707E-07  0.000000E+00  0.000000E+00  4.959707E-07  2.909464E-09  0.000000E+00  0.000000E+00  2.909464E-09  0.000000E+00  0.000000E+00  0.000000E+00  0.000000E+00  0.000000E+00  0.000000E+00  0.000000E+00  0.000000E+00  5.354962E-01  0.000000E+00  0.000000E+00  5.354962E-01                                                                                                                                                                                                                                                                                                                                                                                                                                                                                              
  1.185000E+03  1.250000E+02 -5.425000E+03  4.959707E-07  0.000000E+00  0.000000E+00  4.959707E-07  2.909464E-09  0.000000E+00  0.000000E+00  2.909464E-09  0.000000E+00  0.000000E+00  0.000000E+00  0.000000E+00  0.000000E+00  0.000000E+00  0.000000E+00  0.000000E+00  5.354962E-01  0.000000E+00  0.000000E+00  5.354962E-01                                                                                                                                                                                                                                                                                                                                                                                                                                                                                              
  1.435000E+03  1.250000E+02 -5.425000E+03  4.959707E-07  0.000000E+00  0.000000E+00  4.959707E-07  2.909464E-09  0.000000E+00  0.000000E+00  2.909464E-09  0.000000E+00  0.000000E+00  0.000000E+00  0.000000E+00  0.000000E+00  0.000000E+00  0.000000E+00  0.000000E+00  5.354962E-01  0.000000E+00  0.000000E+00  5.354962E-01                                                                                                                                                                                                                                                                                                                                                                                                                                                                                              
  1.250000E+02  1.250000E+02 -5.225000E+03  9.507475E-07  0.000000E+00  0.000000E+00  9.507475E-07  5.547666E-09  0.000000E+00  0.000000E+00  5.547666E-09  0.000000E+00  0.000000E+00  0.000000E+00  0.000000E+00  0.000000E+00  0.000000E+00  0.000000E+00  0.000000E+00  1.008705E+00  0.000000E+00  0.000000E+00  1.008705E+00                                                                                                                                                                                                                                                                                                                                                                                                                                                                                              
  3.750000E+02  1.250000E+02 -5.225000E+03  9.507475E-07  0.000000E+00  0.000000E+00  9.507475E-07  5.547666E-09  0.000000E+00  0.000000E+00  5.547666E-09  0.000000E+00  0.000000E+00  0.000000E+00  0.000000E+00  0.000000E+00  0.000000E+00  0.000000E+00  0.000000E+00  1.008705E+00  0.000000E+00  0.000000E+00  1.008705E+00                                                                                                                                                                                                                                                                                                                                                                                                                                                                                              
  6.250000E+02  1.250000E+02 -5.225000E+03  9.507475E-07  0.000000E+00  0.000000E+00  9.507475E-07  5.547666E-09  0.000000E+00  0.000000E+00  5.547666E-09  0.000000E+00  0.000000E+00  0.000000E+00  0.000000E+00  0.000000E+00  0.000000E+00  0.000000E+00  0.000000E+00  1.008705E+00  0.000000E+00  0.000000E+00  1.008705E+00                                                                                                                                                                                                                                                                                                                                                                                                                                                                                              
  7.600000E+02  1.250000E+02 -5.225000E+03  9.507475E-07  0.000000E+00  0.000000E+00  9.507475E-07  5.547666E-09  0.000000E+00  0.000000E+00  5.547666E-09  0.000000E+00  0.000000E+00  0.000000E+00  0.000000E+00  0.000000E+00  0.000000E+00  0.000000E+00  0.000000E+00  1.008705E+00  0.000000E+00  0.000000E+00  1.008705E+00                                                                                                                                                                                                                                                                                                                                                                                                                                                                                              
  7.800000E+02  1.250000E+02 -5.225000E+03  9.507475E-07  0.000000E+00  0.000000E+00  9.507475E-07  5.547666E-09  0.000000E+00  0.000000E+00  5.547666E-09  0.000000E+00  0.000000E+00  0.000000E+00  0.000000E+00  0.000000E+00  0.000000E+00  0.000000E+00  0.000000E+00  1.008705E+00  0.000000E+00  0.000000E+00  1.008705E+00                                                                                                                                                                                                                                                                                                                                                                                                                                                                                              
  8.000000E+02  1.250000E+02 -5.225000E+03  9.507475E-07  0.000000E+00  0.000000E+00  9.507475E-07  5.547666E-09  0.000000E+00  0.000000E+00  5.547666E-09  0.000000E+00  0.000000E+00  0.000000E+00  0.000000E+00  0.000000E+00  0.000000E+00  0.000000E+00  0.000000E+00  1.008705E+00  0.000000E+00  0.000000E+00  1.008705E+00                                                                                                                                                                                                                                                                                                                                                                                                                                                                                              
  9.350000E+02  1.250000E+02 -5.225000E+03  9.507475E-07  0.000000E+00  0.000000E+00  9.507475E-07  5.547666E-09  0.000000E+00  0.000000E+00  5.547666E-09  0.000000E+00  0.000000E+00  0.000000E+00  0.000000E+00  0.000000E+00  0.000000E+00  0.000000E+00  0.000000E+00  1.008705E+00  0.000000E+00  0.000000E+00  1.008705E+00                                                                                                                                                                                                                                                                                                                                                                                                                                                                                              
  1.185000E+03  1.250000E+02 -5.225000E+03  9.507475E-07  0.000000E+00  0.000000E+00  9.507475E-07  5.547666E-09  0.000000E+00  0.000000E+00  5.547666E-09  0.000000E+00  0.000000E+00  0.000000E+00  0.000000E+00  0.000000E+00  0.000000E+00  0.000000E+00  0.000000E+00  1.008705E+00  0.000000E+00  0.000000E+00  1.008705E+00                                                                                                                                                                                                                                                                                                                                                                                                                                                                                              
  1.435000E+03  1.250000E+02 -5.225000E+03  9.507475E-07  0.000000E+00  0.000000E+00  9.507475E-07  5.547666E-09  0.000000E+00  0.000000E+00  5.547666E-09  0.000000E+00  0.000000E+00  0.000000E+00  0.000000E+00  0.000000E+00  0.000000E+00  0.000000E+00  0.000000E+00  1.008705E+00  0.000000E+00  0.000000E+00  1.008705E+00                                                                                                                                                                                                                                                                                                                                                                                                                                                                                              
  1.250000E+02  1.250000E+02 -4.975000E+03  8.633192E-07  0.000000E+00  0.000000E+00  8.633192E-07  4.980029E-09  0.000000E+00  0.000000E+00  4.980029E-09  0.000000E+00  0.000000E+00  0.000000E+00  0.000000E+00  0.000000E+00  0.000000E+00  0.000000E+00  0.000000E+00  8.783931E-01  0.000000E+00  0.000000E+00  8.783931E-01                                                                                                                                                                                                                                                                                                                                                                                                                                                                                              
  3.750000E+02  1.250000E+02 -4.975000E+03  8.633192E-07  0.000000E+00  0.000000E+00  8.633192E-07  4.980029E-09  0.000000E+00  0.000000E+00  4.980029E-09  0.000000E+00  0.000000E+00  0.000000E+00  0.000000E+00  0.000000E+00  0.000000E+00  0.000000E+00  0.000000E+00  8.783931E-01  0.000000E+00  0.000000E+00  8.783931E-01                                                                                                                                                                                                                                                                                                                                                                                                                                                                                              
  6.250000E+02  1.250000E+02 -4.975000E+03  8.633192E-07  0.000000E+00  0.000000E+00  8.633192E-07  4.980029E-09  0.000000E+00  0.000000E+00  4.980029E-09  0.000000E+00  0.000000E+00  0.000000E+00  0.000000E+00  0.000000E+00  0.000000E+00  0.000000E+00  0.000000E+00  8.783931E-01  0.000000E+00  0.000000E+00  8.783931E-01                                                                                                                                                                                                                                                                                                                                                                                                                                                                                              
  7.600000E+02  1.250000E+02 -4.975000E+03  8.633192E-07  0.000000E+00  0.000000E+00  8.633192E-07  4.980029E-09  0.000000E+00  0.000000E+00  4.980029E-09  0.000000E+00  0.000000E+00  0.000000E+00  0.000000E+00  0.000000E+00  0.000000E+00  0.000000E+00  0.000000E+00  8.783931E-01  0.000000E+00  0.000000E+00  8.783931E-01                                                                                                                                                                                                                                                                                                                                                                                                                                                                                              
  7.800000E+02  1.250000E+02 -4.975000E+03  8.633192E-07  0.000000E+00  0.000000E+00  8.633192E-07  4.980029E-09  0.000000E+00  0.000000E+00  4.980029E-09  0.000000E+00  0.000000E+00  0.000000E+00  0.000000E+00  0.000000E+00  0.000000E+00  0.000000E+00  0.000000E+00  8.783931E-01  0.000000E+00  0.000000E+00  8.783931E-01                                                                                                                                                                                                                                                                                                                                                                                                                                                                                              
  8.000000E+02  1.250000E+02 -4.975000E+03  8.633192E-07  0.000000E+00  0.000000E+00  8.633192E-07  4.980029E-09  0.000000E+00  0.000000E+00  4.980029E-09  0.000000E+00  0.000000E+00  0.000000E+00  0.000000E+00  0.000000E+00  0.000000E+00  0.000000E+00  0.000000E+00  8.783931E-01  0.000000E+00  0.000000E+00  8.783931E-01                                                                                                                                                                                                                                                                                                                                                                                                                                                                                              
  9.350000E+02  1.250000E+02 -4.975000E+03  8.633192E-07  0.000000E+00  0.000000E+00  8.633192E-07  4.980029E-09  0.000000E+00  0.000000E+00  4.980029E-09  0.000000E+00  0.000000E+00  0.000000E+00  0.000000E+00  0.000000E+00  0.000000E+00  0.000000E+00  0.000000E+00  8.783931E-01  0.000000E+00  0.000000E+00  8.783931E-01                                                                                                                                                                                                                                                                                                                                                                                                                                                                                              
  1.185000E+03  1.250000E+02 -4.975000E+03  8.633192E-07  0.000000E+00  0.000000E+00  8.633192E-07  4.980029E-09  0.000000E+00  0.000000E+00  4.980029E-09  0.000000E+00  0.000000E+00  0.000000E+00  0.000000E+00  0.000000E+00  0.000000E+00  0.000000E+00  0.000000E+00  8.783931E-01  0.000000E+00  0.000000E+00  8.783931E-01                                                                                                                                                                                                                                                                                                                                                                                                                                                                                              
  1.435000E+03  1.250000E+02 -4.975000E+03  8.633192E-07  0.000000E+00  0.000000E+00  8.633192E-07  4.980029E-09  0.000000E+00  0.000000E+00  4.980029E-09  0.000000E+00  0.000000E+00  0.000000E+00  0.000000E+00  0.000000E+00  0.000000E+00  0.000000E+00  0.000000E+00  8.783931E-01  0.000000E+00  0.000000E+00  8.783931E-01                                                                                                                                                                                                                                                                                                                                                                                                                                                                                              
  1.250000E+02  1.250000E+02 -4.725000E+03  9.240261E-07  0.000000E+00  0.000000E+00  9.240261E-07  5.267818E-09  0.000000E+00  0.000000E+00  5.267818E-09  0.000000E+00  0.000000E+00  0.000000E+00  0.000000E+00  0.000000E+00  0.000000E+00  0.000000E+00  0.000000E+00  8.914126E-01  0.000000E+00  0.000000E+00  8.914126E-01                                                                                                                                                                                                                                                                                                                                                                                                                                                                                              
  3.750000E+02  1.250000E+02 -4.725000E+03  9.240261E-07  0.000000E+00  0.000000E+00  9.240261E-07  5.267818E-09  0.000000E+00  0.000000E+00  5.267818E-09  0.000000E+00  0.000000E+00  0.000000E+00  0.000000E+00  0.000000E+00  0.000000E+00  0.000000E+00  0.000000E+00  8.914126E-01  0.000000E+00  0.000000E+00  8.914126E-01                                                                                                                                                                                                                                                                                                                                                                                                                                                                                              
  6.250000E+02  1.250000E+02 -4.725000E+03  9.240283E-07  2.352549E-19  0.000000E+00  9.240283E-07  5.267831E-09  1.340664E-21  0.000000E+00  5.267831E-09  0.000000E+00  0.000000E+00  0.000000E+00  0.000000E+00  0.000000E+00  0.000000E+00  0.000000E+00  0.000000E+00  8.914147E-01  2.219032E-13  0.000000E+00  8.914147E-01                                                                                                                                                                                                                                                                                                                                                                                                                                                                                              
  7.600000E+02  1.250000E+02 -4.725000E+03  9.241875E-07  2.352549E-19  0.000000E+00  9.241875E-07  5.268735E-09  1.340664E-21  0.000000E+00  5.268735E-09  0.000000E+00  0.000000E+00  0.000000E+00  0.000000E+00  0.000000E+00  0.000000E+00  0.000000E+00  0.000000E+00  8.915649E-01  2.219032E-13  0.000000E+00  8.915649E-01                                                                                                                                                                                                                                                                                                                                                                                                                                                                                              
  7.800000E+02  1.250000E+02 -4.725000E+03  9.241937E-07  0.000000E+00  0.000000E+00  9.241937E-07  5.268770E-09  0.000000E+00  0.000000E+00  5.268770E-09  0.000000E+00  0.000000E+00  0.000000E+00  0.000000E+00  0.000000E+00  0.000000E+00  0.000000E+00  0.000000E+00  8.915707E-01  0.000000E+00  0.000000E+00  8.915707E-01                                                                                                                                                                                                                                                                                                                                                                                                                                                                                              
  8.000000E+02  1.250000E+02 -4.725000E+03  9.241875E-07 -2.352549E-19  0.000000E+00  9.241875E-07  5.268735E-09 -1.340664E-21  0.000000E+00  5.268735E-09  0.000000E+00  0.000000E+00  0.000000E+00  0.000000E+00  0.000000E+00  0.000000E+00  0.000000E+00  0.000000E+00  8.915649E-01 -2.219032E-13  0.000000E+00  8.915649E-01                                                                                                                                                                                                                                                                                                                                                                                                                                                                                              
  9.350000E+02  1.250000E+02 -4.725000E+03  9.240283E-07 -2.352549E-19  0.000000E+00  9.240283E-07  5.267831E-09 -1.340664E-21  0.000000E+00  5.267831E-09  0.000000E+00  0.000000E+00  0.000000E+00  0.000000E+00  0.000000E+00  0.000000E+00  0.000000E+00  0.000000E+00  8.914147E-01 -2.219032E-13  0.000000E+00  8.914147E-01                                                                                                                                                                                                                                                                                                                                                                                                                                                                                              
  1.185000E+03  1.250000E+02 -4.725000E+03  9.240261E-07  0.000000E+00  0.000000E+00  9.240261E-07  5.267818E-09  0.000000E+00  0.000000E+00  5.267818E-09  0.000000E+00  0.000000E+00  0.000000E+00  0.000000E+00  0.000000E+00  0.000000E+00  0.000000E+00  0.000000E+00  8.914126E-01  0.000000E+00  0.000000E+00  8.914126E-01                                                                                                                                                                                                                                                                                                                                                                                                                                                                                              