Title="TOUGHREACT V3.30-OMP flowvector.tec: Liq & Gas Fluxes (kg/s/m^2), Pore Velocities (m/s), & Heat Fluxes (J/s/m2)"                                                                                                                                                                                                                                                                                                                                                                                                                                                                                                                                                                                                                                                                                                         
Variables= "X(m)"     "Y(m)"      "Z(m)"     "FluxLiq"   "FluxLiq_X"   "FluxLiq_Y"   "FluxLiq_Z"   "PorVelLiq"  "PorVelLiqX"  "PorVelLiqY"  "PorVelLiqZ"     "FluxGas"   "FluxGas_X"   "FluxGas_Y"   "FluxGas_Z"   "PorVelGas"  "PorVelGasX"  "PorVelGasY"  "PorVelGasZ"    "HeatFlux"  "HeatFlux_X"  "HeatFlux_Y"  "HeatFlux_Z"                                                                                                                                                                                                                                                                                                                                                                                                                                                                                                
Zone T= "5.33000000E+10 sec" I=     9 J=    10 K=    23 F=Point
  1.250000E+02  1.250000E+02 -5.425000E+03  3.745437E-09 -1.387030E-11 -4.087212E-11  3.745188E-09  2.199012E-11 -8.249501E-14 -2.430910E-13  2.198862E-11  0.000000E+00  0.000000E+00  0.000000E+00  0.000000E+00  0.000000E+00  0.000000E+00  0.000000E+00  0.000000E+00  4.230172E-03 -1.566541E-05 -4.616182E-05  4.229891E-03                                                                                                                                                                                                                                                                                                                                                                                                                                                                                              
  3.750000E+02  1.250000E+02 -5.425000E+03  3.723290E-09 -3.536471E-12 -4.207438E-11  3.723051E-09  2.186010E-11 -2.103350E-14 -2.502416E-13  2.185865E-11  0.000000E+00  0.000000E+00  0.000000E+00  0.000000E+00  0.000000E+00  0.000000E+00  0.000000E+00  0.000000E+00  4.205162E-03 -3.994164E-06 -4.751971E-05  4.204892E-03                                                                                                                                                                                                                                                                                                                                                                                                                                                                                              
  6.250000E+02  1.250000E+02 -5.425000E+03  3.703073E-09  8.360651E-11 -4.558935E-11  3.701848E-09  2.174155E-11  4.972583E-13 -2.711474E-13  2.173418E-11  0.000000E+00  0.000000E+00  0.000000E+00  0.000000E+00  0.000000E+00  0.000000E+00  0.000000E+00  0.000000E+00  4.182331E-03  9.442699E-05 -5.148964E-05  4.180948E-03                                                                                                                                                                                                                                                                                                                                                                                                                                                                                              
  7.600000E+02  1.250000E+02 -5.425000E+03  3.714760E-09  1.504796E-10 -4.747778E-11  3.711407E-09  2.181050E-11  8.949927E-13 -2.823790E-13  2.179030E-11  0.000000E+00  0.000000E+00  0.000000E+00  0.000000E+00  0.000000E+00  0.000000E+00  0.000000E+00  0.000000E+00  4.195529E-03  1.699549E-04 -5.362246E-05  4.191743E-03                                                                                                                                                                                                                                                                                                                                                                                                                                                                                              
  7.800000E+02  1.250000E+02 -5.425000E+03  3.716710E-09  1.581476E-10 -4.777119E-11  3.713037E-09  2.182200E-11  9.405990E-13 -2.841240E-13  2.179987E-11  0.000000E+00  0.000000E+00  0.000000E+00  0.000000E+00  0.000000E+00  0.000000E+00  0.000000E+00  0.000000E+00  4.197732E-03  1.786153E-04 -5.395384E-05  4.193583E-03                                                                                                                                                                                                                                                                                                                                                                                                                                                                                              
  8.000000E+02  1.250000E+02 -5.425000E+03  3.718852E-09  1.653808E-10 -4.807864E-11  3.714862E-09  2.183462E-11  9.836196E-13 -2.859527E-13  2.181058E-11  0.000000E+00  0.000000E+00  0.000000E+00  0.000000E+00  0.000000E+00  0.000000E+00  0.000000E+00  0.000000E+00  4.200151E-03  1.867846E-04 -5.430109E-05  4.195644E-03                                                                                                                                                                                                                                                                                                                                                                                                                                                                                              
  9.350000E+02  1.250000E+02 -5.425000E+03  3.733607E-09  1.924004E-10 -5.024379E-11  3.728307E-09  2.192146E-11  1.144321E-12 -2.988301E-13  2.188953E-11  0.000000E+00  0.000000E+00  0.000000E+00  0.000000E+00  0.000000E+00  0.000000E+00  0.000000E+00  0.000000E+00  4.216814E-03  2.173010E-04 -5.674643E-05  4.210829E-03                                                                                                                                                                                                                                                                                                                                                                                                                                                                                              
  1.185000E+03  1.250000E+02 -5.425000E+03  3.769067E-09  1.875839E-10 -5.775640E-11  3.763953E-09  2.212963E-11  1.115674E-12 -3.435121E-13  2.209882E-11  0.000000E+00  0.000000E+00  0.000000E+00  0.000000E+00  0.000000E+00  0.000000E+00  0.000000E+00  0.000000E+00  4.256860E-03  2.118611E-04 -6.523128E-05  4.251085E-03                                                                                                                                                                                                                                                                                                                                                                                                                                                                                              
  1.435000E+03  1.250000E+02 -5.425000E+03  3.799435E-09  7.962364E-11 -6.332632E-11  3.798072E-09  2.230736E-11  4.735699E-13 -3.766399E-13  2.229915E-11  0.000000E+00  0.000000E+00  0.000000E+00  0.000000E+00  0.000000E+00  0.000000E+00  0.000000E+00  0.000000E+00  4.291157E-03  8.992856E-05 -7.152202E-05  4.289618E-03                                                                                                                                                                                                                                                                                                                                                                                                                                                                                              
  1.250000E+02  1.250000E+02 -5.225000E+03  7.630667E-09 -3.023957E-11 -5.138248E-11  7.630434E-09  4.435864E-11 -1.751849E-13 -2.976707E-13  4.435729E-11  0.000000E+00  0.000000E+00  0.000000E+00  0.000000E+00  0.000000E+00  0.000000E+00  0.000000E+00  0.000000E+00  8.277372E-03 -3.150046E-05 -5.352495E-05  8.277139E-03                                                                                                                                                                                                                                                                                                                                                                                                                                                                                              
  3.750000E+02  1.250000E+02 -5.225000E+03  7.534202E-09 -3.676334E-11 -5.328694E-11  7.533924E-09  4.380073E-11 -2.129786E-13 -3.087037E-13  4.379912E-11  0.000000E+00  0.000000E+00  0.000000E+00  0.000000E+00  0.000000E+00  0.000000E+00  0.000000E+00  0.000000E+00  8.174943E-03 -3.829625E-05 -5.550885E-05  8.174665E-03                                                                                                                                                                                                                                                                                                                                                                                                                                                                                              
  6.250000E+02  1.250000E+02 -5.225000E+03  7.432613E-09  7.701478E-11 -6.025990E-11  7.431970E-09  4.321343E-11  4.461647E-13 -3.490997E-13  4.320971E-11  0.000000E+00  0.000000E+00  0.000000E+00  0.000000E+00  0.000000E+00  0.000000E+00  0.000000E+00  0.000000E+00  8.067247E-03  8.022606E-05 -6.277260E-05  8.066603E-03                                                                                                                                                                                                                                                                                                                                                                                                                                                                                              
  7.600000E+02  1.250000E+02 -5.225000E+03  7.473157E-09  1.727994E-10 -6.150294E-11  7.470906E-09  4.344797E-11  1.001068E-12 -3.563010E-13  4.343498E-11  0.000000E+00  0.000000E+00  0.000000E+00  0.000000E+00  0.000000E+00  0.000000E+00  0.000000E+00  0.000000E+00  8.110253E-03  1.800047E-04 -6.406747E-05  8.108002E-03                                                                                                                                                                                                                                                                                                                                                                                                                                                                                              
  7.800000E+02  1.250000E+02 -5.225000E+03  7.480527E-09  1.839539E-10 -6.171114E-11  7.478010E-09  4.349059E-11  1.065688E-12 -3.575072E-13  4.347606E-11  0.000000E+00  0.000000E+00  0.000000E+00  0.000000E+00  0.000000E+00  0.000000E+00  0.000000E+00  0.000000E+00  8.118062E-03  1.916242E-04 -6.428435E-05  8.115545E-03                                                                                                                                                                                                                                                                                                                                                                                                                                                                                              
  8.000000E+02  1.250000E+02 -5.225000E+03  7.490745E-09  1.943333E-10 -6.194957E-11  7.487968E-09  4.354965E-11  1.125819E-12 -3.588884E-13  4.353361E-11  0.000000E+00  0.000000E+00  0.000000E+00  0.000000E+00  0.000000E+00  0.000000E+00  0.000000E+00  0.000000E+00  8.128856E-03  2.024364E-04 -6.453272E-05  8.126078E-03                                                                                                                                                                                                                                                                                                                                                                                                                                                                                              
  9.350000E+02  1.250000E+02 -5.225000E+03  7.552002E-09  2.295807E-10 -6.372083E-11  7.548242E-09  4.390388E-11  1.330016E-12 -3.691499E-13  4.388218E-11  0.000000E+00  0.000000E+00  0.000000E+00  0.000000E+00  0.000000E+00  0.000000E+00  0.000000E+00  0.000000E+00  8.193806E-03  2.391537E-04 -6.637784E-05  8.190046E-03                                                                                                                                                                                                                                                                                                                                                                                                                                                                                              
  1.185000E+03  1.250000E+02 -5.225000E+03  7.694115E-09  2.311890E-10 -7.526281E-11  7.690272E-09  4.472619E-11  1.339334E-12 -4.360156E-13  4.470401E-11  0.000000E+00  0.000000E+00  0.000000E+00  0.000000E+00  0.000000E+00  0.000000E+00  0.000000E+00  0.000000E+00  8.344975E-03  2.408293E-04 -7.840114E-05  8.341131E-03                                                                                                                                                                                                                                                                                                                                                                                                                                                                                              
  1.435000E+03  1.250000E+02 -5.225000E+03  7.839988E-09  1.012486E-10 -8.289230E-11  7.838896E-09  4.556995E-11  5.865579E-13 -4.802155E-13  4.556365E-11  0.000000E+00  0.000000E+00  0.000000E+00  0.000000E+00  0.000000E+00  0.000000E+00  0.000000E+00  0.000000E+00  8.500047E-03  1.054706E-04 -8.634888E-05  8.498954E-03                                                                                                                                                                                                                                                                                                                                                                                                                                                                                              
  1.250000E+02  1.250000E+02 -4.975000E+03  8.018618E-09 -9.952379E-11 -1.014536E-10  8.017358E-09  4.584287E-11 -5.688806E-13 -5.799112E-13  4.583567E-11  0.000000E+00  0.000000E+00  0.000000E+00  0.000000E+00  0.000000E+00  0.000000E+00  0.000000E+00  0.000000E+00  8.151881E-03 -9.883209E-05 -1.007485E-04  8.150659E-03                                                                                                                                                                                                                                                                                                                                                                                                                                                                                              
  3.750000E+02  1.250000E+02 -4.975000E+03  7.760057E-09 -1.824893E-10 -1.064160E-10  7.757181E-09  4.436704E-11 -1.043113E-12 -6.082760E-13  4.435060E-11  0.000000E+00  0.000000E+00  0.000000E+00  0.000000E+00  0.000000E+00  0.000000E+00  0.000000E+00  0.000000E+00  7.891443E-03 -1.812207E-04 -1.056763E-04  7.888654E-03                                                                                                                                                                                                                                                                                                                                                                                                                                                                                              
  6.250000E+02  1.250000E+02 -4.975000E+03  7.429904E-09  5.032104E-11 -1.392200E-10  7.428429E-09  4.248375E-11  2.876356E-13 -7.957829E-13  4.247533E-11  0.000000E+00  0.000000E+00  0.000000E+00  0.000000E+00  0.000000E+00  0.000000E+00  0.000000E+00  0.000000E+00  7.559675E-03  4.997110E-05 -1.382514E-04  7.558246E-03                                                                                                                                                                                                                                                                                                                                                                                                                                                                                              
  7.600000E+02  1.250000E+02 -4.975000E+03  7.462022E-09  2.858217E-10 -1.316944E-10  7.455383E-09  4.266867E-11  1.633761E-12 -7.527668E-13  4.263074E-11  0.000000E+00  0.000000E+00  0.000000E+00  0.000000E+00  0.000000E+00  0.000000E+00  0.000000E+00  0.000000E+00  7.592878E-03  2.838341E-04 -1.307784E-04  7.586444E-03                                                                                                                                                                                                                                                                                                                                                                                                                                                                                              
  7.800000E+02  1.250000E+02 -4.975000E+03  7.466912E-09  3.248756E-10 -1.309976E-10  7.458691E-09  4.269692E-11  1.856995E-12 -7.487841E-13  4.264994E-11  0.000000E+00  0.000000E+00  0.000000E+00  0.000000E+00  0.000000E+00  0.000000E+00  0.000000E+00  0.000000E+00  7.597962E-03  3.226166E-04 -1.300866E-04  7.589995E-03                                                                                                                                                                                                                                                                                                                                                                                                                                                                                              
  8.000000E+02  1.250000E+02 -4.975000E+03  7.648766E-09  3.513104E-10 -1.308885E-10  7.639573E-09  4.373153E-11  2.008098E-12 -7.481607E-13  4.367899E-11  0.000000E+00  0.000000E+00  0.000000E+00  0.000000E+00  0.000000E+00  0.000000E+00  0.000000E+00  0.000000E+00  7.778942E-03  3.488681E-04 -1.299783E-04  7.770028E-03                                                                                                                                                                                                                                                                                                                                                                                                                                                                                              
  9.350000E+02  1.250000E+02 -4.975000E+03  7.779291E-09  4.036196E-10 -1.280821E-10  7.767758E-09  4.447721E-11  2.307102E-12 -7.321203E-13  4.441130E-11  0.000000E+00  0.000000E+00  0.000000E+00  0.000000E+00  0.000000E+00  0.000000E+00  0.000000E+00  0.000000E+00  7.910794E-03  4.008148E-04 -1.271918E-04  7.899610E-03                                                                                                                                                                                                                                                                                                                                                                                                                                                                                              
  1.185000E+03  1.250000E+02 -4.975000E+03  8.097281E-09  4.270228E-10 -1.636309E-10  8.084358E-09  4.629348E-11  2.440882E-12 -9.353200E-13  4.621962E-11  0.000000E+00  0.000000E+00  0.000000E+00  0.000000E+00  0.000000E+00  0.000000E+00  0.000000E+00  0.000000E+00  8.231766E-03  4.240575E-04 -1.624941E-04  8.219230E-03                                                                                                                                                                                                                                                                                                                                                                                                                                                                                              
  1.435000E+03  1.250000E+02 -4.975000E+03  8.512641E-09  2.023731E-10 -1.781740E-10  8.508370E-09  4.866401E-11  1.156776E-12 -1.018453E-12  4.863960E-11  0.000000E+00  0.000000E+00  0.000000E+00  0.000000E+00  0.000000E+00  0.000000E+00  0.000000E+00  0.000000E+00  8.650086E-03  2.009688E-04 -1.769377E-04  8.645941E-03                                                                                                                                                                                                                                                                                                                                                                                                                                                                                              
  1.250000E+02  1.250000E+02 -4.725000E+03  8.448627E-09 -7.118658E-11 -6.523178E-11  8.448075E-09  4.640606E-11 -4.012987E-13 -3.677325E-13  4.640287E-11  0.000000E+00  0.000000E+00  0.000000E+00  0.000000E+00  0.000000E+00  0.000000E+00  0.000000E+00  0.000000E+00  8.165007E-03 -6.694595E-05 -6.134941E-05  8.164502E-03                                                                                                                                                                                                                                                                                                                                                                                                                                                                                              
  3.750000E+02  1.250000E+02 -4.725000E+03  7.995292E-09 -1.223452E-10 -7.461603E-11  7.994007E-09  4.392581E-11 -6.896473E-13 -4.205769E-13  4.391838E-11  0.000000E+00  0.000000E+00  0.000000E+00  0.000000E+00  0.000000E+00  0.000000E+00  0.000000E+00  0.000000E+00  7.726631E-03 -1.150221E-04 -7.013845E-05  7.725456E-03                                                                                                                                                                                                                                                                                                                                                                                                                                                                                              
  6.250000E+02  1.250000E+02 -4.725000E+03  7.369459E-09  6.731420E-11 -9.562569E-11  7.368531E-09  4.050538E-11  3.793451E-13 -5.388663E-13  4.050002E-11  0.000000E+00  0.000000E+00  0.000000E+00  0.000000E+00  0.000000E+00  0.000000E+00  0.000000E+00  0.000000E+00  7.122523E-03  6.325841E-05 -8.977806E-05  7.121676E-03                                                                                                                                                                                                                                                                                                                                                                                                                                                                                              
  7.600000E+02  1.250000E+02 -4.725000E+03  7.295179E-09  2.569565E-10 -1.024553E-10  7.289932E-09  4.011189E-11  1.448166E-12 -5.773827E-13  4.008158E-11  0.000000E+00  0.000000E+00  0.000000E+00  0.000000E+00  0.000000E+00  0.000000E+00  0.000000E+00  0.000000E+00  7.052506E-03  2.414755E-04 -9.622969E-05  7.047713E-03                                                                                                                                                                                                                                                                                                                                                                                                                                                                                              
  7.800000E+02  1.250000E+02 -4.725000E+03  7.270582E-09  2.988723E-10 -1.042377E-10  7.263689E-09  3.998114E-11  1.684451E-12 -5.874325E-13  3.994132E-11  0.000000E+00  0.000000E+00  0.000000E+00  0.000000E+00  0.000000E+00  0.000000E+00  0.000000E+00  0.000000E+00  7.029219E-03  2.808665E-04 -9.791160E-05  7.022923E-03                                                                                                                                                                                                                                                                                                                                                                                                                                                                                              
  8.000000E+02  1.250000E+02 -4.725000E+03  7.912276E-09  3.192692E-10 -1.069697E-10  7.905109E-09  4.345742E-11  1.799534E-12 -6.028717E-13  4.341596E-11  0.000000E+00  0.000000E+00  0.000000E+00  0.000000E+00  0.000000E+00  0.000000E+00  0.000000E+00  0.000000E+00  7.643183E-03  3.001013E-04 -1.004875E-04  7.636628E-03                                                                                                                                                                                                                                                                                                                                                                                                                                                                                              
  9.350000E+02  1.250000E+02 -4.725000E+03  8.047516E-09  3.401654E-10 -1.195834E-10  8.039434E-09  4.420806E-11  1.917511E-12 -6.740285E-13  4.416132E-11  0.000000E+00  0.000000E+00  0.000000E+00  0.000000E+00  0.000000E+00  0.000000E+00  0.000000E+00  0.000000E+00  7.775512E-03  3.198548E-04 -1.123993E-04  7.768117E-03                                                                                                                                                                                                                                                                                                                                                                                                                                                                                              
  1.185000E+03  1.250000E+02 -4.725000E+03  8.535923E-09  3.556657E-10 -1.570062E-10  8.527065E-09  4.688598E-11  2.005180E-12 -8.850694E-13  4.683473E-11  0.000000E+00  0.000000E+00  0.000000E+00  0.000000E+00  0.000000E+00  0.000000E+00  0.000000E+00  0.000000E+00  8.248520E-03  3.345704E-04 -1.476198E-04  8.240410E-03                                                                                                                                                                                                                                                                                                                                                                                                                                                                                              