Title="TOUGHREACT V3.30-OMP flowvector.tec: Liq & Gas Fluxes (kg/s/m^2), Pore Velocities (m/s), & Heat Fluxes (J/s/m2)"                                                                                                                                                                                                                                                                                                                                                                                                                                                                                                                                                                                                                                                                                                         
Variables= "X(m)"     "Y(m)"      "Z(m)"     "FluxLiq"   "FluxLiq_X"   "FluxLiq_Y"   "FluxLiq_Z"   "PorVelLiq"  "PorVelLiqX"  "PorVelLiqY"  "PorVelLiqZ"     "FluxGas"   "FluxGas_X"   "FluxGas_Y"   "FluxGas_Z"   "PorVelGas"  "PorVelGasX"  "PorVelGasY"  "PorVelGasZ"    "HeatFlux"  "HeatFlux_X"  "HeatFlux_Y"  "HeatFlux_Z"                                                                                                                                                                                                                                                                                                                                                                                                                                                                                                
Zone T= "8.66000000E+10 sec" I=     9 J=    10 K=    23 F=Point
  1.250000E+02  1.250000E+02 -5.425000E+03  3.840203E-09 -1.659261E-11 -4.143184E-11  3.839943E-09  2.265642E-11 -9.967523E-14 -2.488896E-13  2.265483E-11  0.000000E+00  0.000000E+00  0.000000E+00  0.000000E+00  0.000000E+00  0.000000E+00  0.000000E+00  0.000000E+00  4.455545E-03 -1.925137E-05 -4.807077E-05  4.455244E-03                                                                                                                                                                                                                                                                                                                                                                                                                                                                                              
  3.750000E+02  1.250000E+02 -5.425000E+03  3.817231E-09 -1.061561E-11 -4.237595E-11  3.816981E-09  2.252088E-11 -6.377015E-14 -2.545612E-13  2.251935E-11  0.000000E+00  0.000000E+00  0.000000E+00  0.000000E+00  0.000000E+00  0.000000E+00  0.000000E+00  0.000000E+00  4.428895E-03 -1.231663E-05 -4.916621E-05  4.428605E-03                                                                                                                                                                                                                                                                                                                                                                                                                                                                                              
  6.250000E+02  1.250000E+02 -5.425000E+03  3.795584E-09  7.482068E-11 -4.533394E-11  3.794575E-09  2.239333E-11  4.494635E-13 -2.723305E-13  2.238717E-11  0.000000E+00  0.000000E+00  0.000000E+00  0.000000E+00  0.000000E+00  0.000000E+00  0.000000E+00  0.000000E+00  4.403782E-03  8.680982E-05 -5.259822E-05  4.402612E-03                                                                                                                                                                                                                                                                                                                                                                                                                                                                                              
  7.600000E+02  1.250000E+02 -5.425000E+03  3.806571E-09  1.415949E-10 -4.664951E-11  3.803650E-09  2.245857E-11  8.505901E-13 -2.802334E-13  2.244071E-11  0.000000E+00  0.000000E+00  0.000000E+00  0.000000E+00  0.000000E+00  0.000000E+00  0.000000E+00  0.000000E+00  4.416529E-03  1.642838E-04 -5.412458E-05  4.413140E-03                                                                                                                                                                                                                                                                                                                                                                                                                                                                                              
  7.800000E+02  1.250000E+02 -5.425000E+03  3.808424E-09  1.492378E-10 -4.685280E-11  3.805210E-09  2.246957E-11  8.965026E-13 -2.814546E-13  2.244991E-11  0.000000E+00  0.000000E+00  0.000000E+00  0.000000E+00  0.000000E+00  0.000000E+00  0.000000E+00  0.000000E+00  4.418679E-03  1.731513E-04 -5.436044E-05  4.414950E-03                                                                                                                                                                                                                                                                                                                                                                                                                                                                                              
  8.000000E+02  1.250000E+02 -5.425000E+03  3.810475E-09  1.565053E-10 -4.706732E-11  3.806968E-09  2.248173E-11  9.401600E-13 -2.827433E-13  2.246029E-11  0.000000E+00  0.000000E+00  0.000000E+00  0.000000E+00  0.000000E+00  0.000000E+00  0.000000E+00  0.000000E+00  4.421058E-03  1.815834E-04 -5.460934E-05  4.416989E-03                                                                                                                                                                                                                                                                                                                                                                                                                                                                                              
  9.350000E+02  1.250000E+02 -5.425000E+03  3.824675E-09  1.837886E-10 -4.861350E-11  3.819948E-09  2.256578E-11  1.104057E-12 -2.920315E-13  2.253687E-11  0.000000E+00  0.000000E+00  0.000000E+00  0.000000E+00  0.000000E+00  0.000000E+00  0.000000E+00  0.000000E+00  4.437533E-03  2.132385E-04 -5.640326E-05  4.432048E-03                                                                                                                                                                                                                                                                                                                                                                                                                                                                                              
  1.185000E+03  1.250000E+02 -5.425000E+03  3.858871E-09  1.806402E-10 -5.501502E-11  3.854248E-09  2.276752E-11  1.085144E-12 -3.304868E-13  2.273925E-11  0.000000E+00  0.000000E+00  0.000000E+00  0.000000E+00  0.000000E+00  0.000000E+00  0.000000E+00  0.000000E+00  4.477204E-03  2.095855E-04 -6.383049E-05  4.471841E-03                                                                                                                                                                                                                                                                                                                                                                                                                                                                                              
  1.435000E+03  1.250000E+02 -5.425000E+03  3.888304E-09  7.687033E-11 -5.982203E-11  3.887084E-09  2.294046E-11  4.617762E-13 -3.593635E-13  2.293299E-11  0.000000E+00  0.000000E+00  0.000000E+00  0.000000E+00  0.000000E+00  0.000000E+00  0.000000E+00  0.000000E+00  4.511352E-03  8.918780E-05 -6.940772E-05  4.509937E-03                                                                                                                                                                                                                                                                                                                                                                                                                                                                                              
  1.250000E+02  1.250000E+02 -5.225000E+03  7.818248E-09 -3.259583E-11 -5.131894E-11  7.818012E-09  4.556088E-11 -1.888512E-13 -2.973278E-13  4.555952E-11  0.000000E+00  0.000000E+00  0.000000E+00  0.000000E+00  0.000000E+00  0.000000E+00  0.000000E+00  0.000000E+00  8.600098E-03 -3.396050E-05 -5.346750E-05  8.599865E-03                                                                                                                                                                                                                                                                                                                                                                                                                                                                                              
  3.750000E+02  1.250000E+02 -5.225000E+03  7.719599E-09 -4.362444E-11 -5.292923E-11  7.719294E-09  4.498959E-11 -2.527479E-13 -3.066572E-13  4.498784E-11  0.000000E+00  0.000000E+00  0.000000E+00  0.000000E+00  0.000000E+00  0.000000E+00  0.000000E+00  0.000000E+00  8.494595E-03 -4.545083E-05 -5.514518E-05  8.494295E-03                                                                                                                                                                                                                                                                                                                                                                                                                                                                                              
  6.250000E+02  1.250000E+02 -5.225000E+03  7.614278E-09  6.623289E-11 -5.914936E-11  7.613760E-09  4.437998E-11  3.837350E-13 -3.426948E-13  4.437700E-11  0.000000E+00  0.000000E+00  0.000000E+00  0.000000E+00  0.000000E+00  0.000000E+00  0.000000E+00  0.000000E+00  8.382201E-03  6.900579E-05 -6.162569E-05  8.381690E-03                                                                                                                                                                                                                                                                                                                                                                                                                                                                                              
  7.600000E+02  1.250000E+02 -5.225000E+03  7.652409E-09  1.601346E-10 -5.950027E-11  7.650502E-09  4.460083E-11  9.277754E-13 -3.447280E-13  4.458985E-11  0.000000E+00  0.000000E+00  0.000000E+00  0.000000E+00  0.000000E+00  0.000000E+00  0.000000E+00  0.000000E+00  8.422927E-03  1.668388E-04 -6.199131E-05  8.421046E-03                                                                                                                                                                                                                                                                                                                                                                                                                                                                                              
  7.800000E+02  1.250000E+02 -5.225000E+03  7.659420E-09  1.710724E-10 -5.957229E-11  7.657278E-09  4.464142E-11  9.911460E-13 -3.451453E-13  4.462908E-11  0.000000E+00  0.000000E+00  0.000000E+00  0.000000E+00  0.000000E+00  0.000000E+00  0.000000E+00  0.000000E+00  8.430403E-03  1.782346E-04 -6.206636E-05  8.428291E-03                                                                                                                                                                                                                                                                                                                                                                                                                                                                                              
  8.000000E+02  1.250000E+02 -5.225000E+03  7.669290E-09  1.812444E-10 -5.967091E-11  7.666915E-09  4.469851E-11  1.050080E-12 -3.457167E-13  4.468484E-11  0.000000E+00  0.000000E+00  0.000000E+00  0.000000E+00  0.000000E+00  0.000000E+00  0.000000E+00  0.000000E+00  8.440882E-03  1.888325E-04 -6.216910E-05  8.438540E-03                                                                                                                                                                                                                                                                                                                                                                                                                                                                                              
  9.350000E+02  1.250000E+02 -5.225000E+03  7.728068E-09  2.156547E-10 -6.047556E-11  7.724822E-09  4.503881E-11  1.249445E-12 -3.503787E-13  4.502012E-11  0.000000E+00  0.000000E+00  0.000000E+00  0.000000E+00  0.000000E+00  0.000000E+00  0.000000E+00  0.000000E+00  8.503613E-03  2.246836E-04 -6.300748E-05  8.500411E-03                                                                                                                                                                                                                                                                                                                                                                                                                                                                                              
  1.185000E+03  1.250000E+02 -5.225000E+03  7.863166E-09  2.183216E-10 -7.007906E-11  7.859822E-09  4.582162E-11  1.264897E-12 -4.060192E-13  4.580236E-11  0.000000E+00  0.000000E+00  0.000000E+00  0.000000E+00  0.000000E+00  0.000000E+00  0.000000E+00  0.000000E+00  8.648434E-03  2.274626E-04 -7.301319E-05  8.645134E-03                                                                                                                                                                                                                                                                                                                                                                                                                                                                                              
  1.435000E+03  1.250000E+02 -5.225000E+03  8.001836E-09  9.571200E-11 -7.632984E-11  8.000900E-09  4.662480E-11  5.545303E-13 -4.422352E-13  4.661941E-11  0.000000E+00  0.000000E+00  0.000000E+00  0.000000E+00  0.000000E+00  0.000000E+00  0.000000E+00  0.000000E+00  8.796947E-03  9.971960E-05 -7.952589E-05  8.796022E-03                                                                                                                                                                                                                                                                                                                                                                                                                                                                                              
  1.250000E+02  1.250000E+02 -4.975000E+03  8.192161E-09 -1.020233E-10 -1.015034E-10  8.190897E-09  4.683869E-11 -5.832004E-13 -5.802289E-13  4.683146E-11  0.000000E+00  0.000000E+00  0.000000E+00  0.000000E+00  0.000000E+00  0.000000E+00  0.000000E+00  0.000000E+00  8.329751E-03 -1.013222E-04 -1.008060E-04  8.328525E-03                                                                                                                                                                                                                                                                                                                                                                                                                                                                                              
  3.750000E+02  1.250000E+02 -4.975000E+03  7.931085E-09 -1.904900E-10 -1.060893E-10  7.928088E-09  4.534832E-11 -1.088906E-12 -6.064426E-13  4.533119E-11  0.000000E+00  0.000000E+00  0.000000E+00  0.000000E+00  0.000000E+00  0.000000E+00  0.000000E+00  0.000000E+00  8.066706E-03 -1.891805E-04 -1.053601E-04  8.063799E-03                                                                                                                                                                                                                                                                                                                                                                                                                                                                                              
  6.250000E+02  1.250000E+02 -4.975000E+03  7.596166E-09  3.484074E-11 -1.376536E-10  7.594839E-09  4.343759E-11  1.991609E-13 -7.868729E-13  4.343000E-11  0.000000E+00  0.000000E+00  0.000000E+00  0.000000E+00  0.000000E+00  0.000000E+00  0.000000E+00  0.000000E+00  7.730052E-03  3.460113E-05 -1.367062E-04  7.728765E-03                                                                                                                                                                                                                                                                                                                                                                                                                                                                                              
  7.600000E+02  1.250000E+02 -4.975000E+03  7.621696E-09  2.655085E-10 -1.277607E-10  7.615999E-09  4.358495E-11  1.517735E-12 -7.303221E-13  4.355239E-11  0.000000E+00  0.000000E+00  0.000000E+00  0.000000E+00  0.000000E+00  0.000000E+00  0.000000E+00  0.000000E+00  7.756656E-03  2.636826E-04 -1.268817E-04  7.751135E-03                                                                                                                                                                                                                                                                                                                                                                                                                                                                                              
  7.800000E+02  1.250000E+02 -4.975000E+03  7.625296E-09  3.038714E-10 -1.266964E-10  7.618186E-09  4.360584E-11  1.737031E-12 -7.242384E-13  4.356521E-11  0.000000E+00  0.000000E+00  0.000000E+00  0.000000E+00  0.000000E+00  0.000000E+00  0.000000E+00  0.000000E+00  7.760453E-03  3.017819E-04 -1.258248E-04  7.753562E-03                                                                                                                                                                                                                                                                                                                                                                                                                                                                                              
  8.000000E+02  1.250000E+02 -4.975000E+03  7.806921E-09  3.295740E-10 -1.262056E-10  7.798941E-09  4.463923E-11  1.883958E-12 -7.214337E-13  4.459362E-11  0.000000E+00  0.000000E+00  0.000000E+00  0.000000E+00  0.000000E+00  0.000000E+00  0.000000E+00  0.000000E+00  7.941211E-03  3.273084E-04 -1.253376E-04  7.933473E-03                                                                                                                                                                                                                                                                                                                                                                                                                                                                                              
  9.350000E+02  1.250000E+02 -4.975000E+03  7.928828E-09  3.783162E-10 -1.207019E-10  7.918878E-09  4.533587E-11  2.162588E-12 -6.899737E-13  4.527900E-11  0.000000E+00  0.000000E+00  0.000000E+00  0.000000E+00  0.000000E+00  0.000000E+00  0.000000E+00  0.000000E+00  8.064440E-03  3.757168E-04 -1.198723E-04  8.054791E-03                                                                                                                                                                                                                                                                                                                                                                                                                                                                                              
  1.185000E+03  1.250000E+02 -4.975000E+03  8.225413E-09  3.996993E-10 -1.507000E-10  8.214314E-09  4.703029E-11  2.284829E-12 -8.614555E-13  4.696685E-11  0.000000E+00  0.000000E+00  0.000000E+00  0.000000E+00  0.000000E+00  0.000000E+00  0.000000E+00  0.000000E+00  8.363932E-03  3.969555E-04 -1.496649E-04  8.353167E-03                                                                                                                                                                                                                                                                                                                                                                                                                                                                                              
  1.435000E+03  1.250000E+02 -4.975000E+03  8.613377E-09  1.892866E-10 -1.610971E-10  8.609790E-09  4.924498E-11  1.082034E-12 -9.208927E-13  4.922448E-11  0.000000E+00  0.000000E+00  0.000000E+00  0.000000E+00  0.000000E+00  0.000000E+00  0.000000E+00  0.000000E+00  8.754775E-03  1.879883E-04 -1.599923E-04  8.751294E-03                                                                                                                                                                                                                                                                                                                                                                                                                                                                                              
  1.250000E+02  1.250000E+02 -4.725000E+03  8.597004E-09 -7.279163E-11 -6.524171E-11  8.596448E-09  4.722643E-11 -4.103705E-13 -3.678097E-13  4.722321E-11  0.000000E+00  0.000000E+00  0.000000E+00  0.000000E+00  0.000000E+00  0.000000E+00  0.000000E+00  0.000000E+00  8.309561E-03 -6.846173E-05 -6.136446E-05  8.309052E-03                                                                                                                                                                                                                                                                                                                                                                                                                                                                                              
  3.750000E+02  1.250000E+02 -4.725000E+03  8.142553E-09 -1.287145E-10 -7.438368E-11  8.141196E-09  4.473961E-11 -7.255900E-13 -4.192910E-13  4.473176E-11  0.000000E+00  0.000000E+00  0.000000E+00  0.000000E+00  0.000000E+00  0.000000E+00  0.000000E+00  0.000000E+00  7.869973E-03 -1.210197E-04 -6.992630E-05  7.868732E-03                                                                                                                                                                                                                                                                                                                                                                                                                                                                                              
  6.250000E+02  1.250000E+02 -4.725000E+03  7.519625E-09  4.528594E-11 -9.345782E-11  7.518907E-09  4.133341E-11  2.552089E-13 -5.266790E-13  4.132927E-11  0.000000E+00  0.000000E+00  0.000000E+00  0.000000E+00  0.000000E+00  0.000000E+00  0.000000E+00  0.000000E+00  7.268366E-03  4.256112E-05 -8.774986E-05  7.267711E-03                                                                                                                                                                                                                                                                                                                                                                                                                                                                                              
  7.600000E+02  1.250000E+02 -4.725000E+03  7.459649E-09  2.190267E-10 -9.391745E-11  7.455842E-09  4.101385E-11  1.234469E-12 -5.292971E-13  4.099185E-11  0.000000E+00  0.000000E+00  0.000000E+00  0.000000E+00  0.000000E+00  0.000000E+00  0.000000E+00  0.000000E+00  7.211604E-03  2.058489E-04 -8.821798E-05  7.208125E-03                                                                                                                                                                                                                                                                                                                                                                                                                                                                                              
  7.800000E+02  1.250000E+02 -4.725000E+03  7.437091E-09  2.537015E-10 -9.451334E-11  7.432162E-09  4.089337E-11  1.429947E-12 -5.326605E-13  4.086489E-11  0.000000E+00  0.000000E+00  0.000000E+00  0.000000E+00  0.000000E+00  0.000000E+00  0.000000E+00  0.000000E+00  7.190199E-03  2.384379E-04 -8.878492E-05  7.185696E-03                                                                                                                                                                                                                                                                                                                                                                                                                                                                                              
  8.000000E+02  1.250000E+02 -4.725000E+03  8.023223E-09  2.707650E-10 -9.578353E-11  8.018081E-09  4.407435E-11  1.526230E-12 -5.398575E-13  4.404460E-11  0.000000E+00  0.000000E+00  0.000000E+00  0.000000E+00  0.000000E+00  0.000000E+00  0.000000E+00  0.000000E+00  7.752030E-03  2.545318E-04 -8.998683E-05  7.747328E-03                                                                                                                                                                                                                                                                                                                                                                                                                                                                                              
  9.350000E+02  1.250000E+02 -4.725000E+03  8.149224E-09  2.852537E-10 -9.902266E-11  8.143628E-09  4.477328E-11  1.608065E-12 -5.581699E-13  4.474092E-11  0.000000E+00  0.000000E+00  0.000000E+00  0.000000E+00  0.000000E+00  0.000000E+00  0.000000E+00  0.000000E+00  7.875379E-03  2.682460E-04 -9.308200E-05  7.870259E-03                                                                                                                                                                                                                                                                                                                                                                                                                                                                                              
  1.185000E+03  1.250000E+02 -4.725000E+03  8.586993E-09  2.876661E-10 -1.180960E-10  8.581361E-09  4.717572E-11  1.621901E-12 -6.657646E-13  4.714313E-11  0.000000E+00  0.000000E+00  0.000000E+00  0.000000E+00  0.000000E+00  0.000000E+00  0.000000E+00  0.000000E+00  8.300033E-03  2.706273E-04 -1.110459E-04  8.294877E-03                                                                                                                                                                                                                                                                                                                                                                                                                                                                                              