Title="TOUGHREACT V3.30-OMP flowvector.tec: Liq & Gas Fluxes (kg/s/m^2), Pore Velocities (m/s), & Heat Fluxes (J/s/m2)"                                                                                                                                                                                                                                                                                                                                                                                                                                                                                                                                                                                                                                                                                                         
Variables= "X(m)"     "Y(m)"      "Z(m)"     "FluxLiq"   "FluxLiq_X"   "FluxLiq_Y"   "FluxLiq_Z"   "PorVelLiq"  "PorVelLiqX"  "PorVelLiqY"  "PorVelLiqZ"     "FluxGas"   "FluxGas_X"   "FluxGas_Y"   "FluxGas_Z"   "PorVelGas"  "PorVelGasX"  "PorVelGasY"  "PorVelGasZ"    "HeatFlux"  "HeatFlux_X"  "HeatFlux_Y"  "HeatFlux_Z"                                                                                                                                                                                                                                                                                                                                                                                                                                                                                                
Zone T= "3.00000000E+09 sec" I=     9 J=    10 K=    23 F=Point
  1.250000E+02  1.250000E+02 -5.425000E+03  2.520879E-08  2.075245E-10  7.100293E-10 -2.519794E-08  1.478138E-10  1.224814E-12  4.190610E-12 -1.477493E-10  0.000000E+00  0.000000E+00  0.000000E+00  0.000000E+00  0.000000E+00  0.000000E+00  0.000000E+00  0.000000E+00  2.623322E-02  2.246115E-04  7.684912E-04 -2.622100E-02                                                                                                                                                                                                                                                                                                                                                                                                                                                                                              
  3.750000E+02  1.250000E+02 -5.425000E+03  2.496348E-08  2.106424E-10  7.055836E-10 -2.495261E-08  1.463756E-10  1.243217E-12  4.164375E-12 -1.463111E-10  0.000000E+00  0.000000E+00  0.000000E+00  0.000000E+00  0.000000E+00  0.000000E+00  0.000000E+00  0.000000E+00  2.597795E-02  2.279862E-04  7.636797E-04 -2.596572E-02                                                                                                                                                                                                                                                                                                                                                                                                                                                                                              
  6.250000E+02  1.250000E+02 -5.425000E+03  2.478123E-08 -5.080372E-10  6.957100E-10 -2.476625E-08  1.453074E-10 -2.998448E-12  4.106101E-12 -1.452184E-10  0.000000E+00  0.000000E+00  0.000000E+00  0.000000E+00  0.000000E+00  0.000000E+00  0.000000E+00  0.000000E+00  2.578867E-02 -5.498680E-04  7.529934E-04 -2.577181E-02                                                                                                                                                                                                                                                                                                                                                                                                                                                                                              
  7.600000E+02  1.250000E+02 -5.425000E+03  2.484931E-08 -1.057943E-09  7.084040E-10 -2.481667E-08  1.457078E-10 -6.244007E-12  4.181018E-12 -1.455139E-10  0.000000E+00  0.000000E+00  0.000000E+00  0.000000E+00  0.000000E+00  0.000000E+00  0.000000E+00  0.000000E+00  2.586101E-02 -1.145052E-03  7.667326E-04 -2.582427E-02                                                                                                                                                                                                                                                                                                                                                                                                                                                                                              
  7.800000E+02  1.250000E+02 -5.425000E+03  2.486152E-08 -1.128186E-09  7.103930E-10 -2.482575E-08  1.457796E-10 -6.658577E-12  4.192757E-12 -1.455671E-10  0.000000E+00  0.000000E+00  0.000000E+00  0.000000E+00  0.000000E+00  0.000000E+00  0.000000E+00  0.000000E+00  2.587398E-02 -1.221078E-03  7.688854E-04 -2.583371E-02                                                                                                                                                                                                                                                                                                                                                                                                                                                                                              
  8.000000E+02  1.250000E+02 -5.425000E+03  2.487538E-08 -1.196175E-09  7.124730E-10 -2.483639E-08  1.458611E-10 -7.059849E-12  4.205032E-12 -1.456295E-10  0.000000E+00  0.000000E+00  0.000000E+00  0.000000E+00  0.000000E+00  0.000000E+00  0.000000E+00  0.000000E+00  2.588868E-02 -1.294666E-03  7.711366E-04 -2.584479E-02                                                                                                                                                                                                                                                                                                                                                                                                                                                                                              
  9.350000E+02  1.250000E+02 -5.425000E+03  2.497581E-08 -1.526314E-09  7.270004E-10 -2.491853E-08  1.464512E-10 -9.008320E-12  4.290769E-12 -1.461109E-10  0.000000E+00  0.000000E+00  0.000000E+00  0.000000E+00  0.000000E+00  0.000000E+00  0.000000E+00  0.000000E+00  2.599474E-02 -1.651988E-03  7.868601E-04 -2.593025E-02                                                                                                                                                                                                                                                                                                                                                                                                                                                                                              
  1.185000E+03  1.250000E+02 -5.425000E+03  2.530511E-08 -1.593792E-09  7.439578E-10 -2.524391E-08  1.483819E-10 -9.406555E-12  4.390840E-12 -1.480183E-10  0.000000E+00  0.000000E+00  0.000000E+00  0.000000E+00  0.000000E+00  0.000000E+00  0.000000E+00  0.000000E+00  2.633774E-02 -1.725022E-03  8.052137E-04 -2.626885E-02                                                                                                                                                                                                                                                                                                                                                                                                                                                                                              
  1.435000E+03  1.250000E+02 -5.425000E+03  2.552451E-08 -6.822555E-10  7.272256E-10 -2.550502E-08  1.496647E-10 -4.026665E-12  4.292078E-12 -1.495490E-10  0.000000E+00  0.000000E+00  0.000000E+00  0.000000E+00  0.000000E+00  0.000000E+00  0.000000E+00  0.000000E+00  2.656252E-02 -7.384311E-04  7.871040E-04 -2.654059E-02                                                                                                                                                                                                                                                                                                                                                                                                                                                                                              
  1.250000E+02  1.250000E+02 -5.225000E+03  9.878329E-08  4.001142E-10  8.910752E-10 -9.877846E-08  5.736260E-10  2.333027E-12  5.195773E-12 -5.735977E-10  0.000000E+00  0.000000E+00  0.000000E+00  0.000000E+00  0.000000E+00  0.000000E+00  0.000000E+00  0.000000E+00  9.922524E-02  4.163592E-04  9.272537E-04 -9.922004E-02                                                                                                                                                                                                                                                                                                                                                                                                                                                                                              
  3.750000E+02  1.250000E+02 -5.225000E+03  9.766010E-08  5.525659E-10  8.965880E-10 -9.765442E-08  5.671085E-10  3.221959E-12  5.227925E-12 -5.670753E-10  0.000000E+00  0.000000E+00  0.000000E+00  0.000000E+00  0.000000E+00  0.000000E+00  0.000000E+00  0.000000E+00  9.809899E-02  5.750006E-04  9.329905E-04 -9.809287E-02                                                                                                                                                                                                                                                                                                                                                                                                                                                                                              
  6.250000E+02  1.250000E+02 -5.225000E+03  9.679142E-08 -4.226585E-10  8.703268E-10 -9.678659E-08  5.620679E-10 -2.464482E-12  5.074802E-12 -5.620396E-10  0.000000E+00  0.000000E+00  0.000000E+00  0.000000E+00  0.000000E+00  0.000000E+00  0.000000E+00  0.000000E+00  9.722807E-02 -4.398192E-04  9.056637E-04 -9.722286E-02                                                                                                                                                                                                                                                                                                                                                                                                                                                                                              
  7.600000E+02  1.250000E+02 -5.225000E+03  9.701737E-08 -1.201223E-09  8.959320E-10 -9.700580E-08  5.633791E-10 -7.004217E-12  5.224098E-12 -5.633113E-10  0.000000E+00  0.000000E+00  0.000000E+00  0.000000E+00  0.000000E+00  0.000000E+00  0.000000E+00  0.000000E+00  9.745521E-02 -1.249994E-03  9.323083E-04 -9.744273E-02                                                                                                                                                                                                                                                                                                                                                                                                                                                                                              
  7.800000E+02  1.250000E+02 -5.225000E+03  9.705855E-08 -1.301843E-09  8.999476E-10 -9.704564E-08  5.636180E-10 -7.590922E-12  5.247512E-12 -5.635425E-10  0.000000E+00  0.000000E+00  0.000000E+00  0.000000E+00  0.000000E+00  0.000000E+00  0.000000E+00  0.000000E+00  9.749660E-02 -1.354700E-03  9.364869E-04 -9.748269E-02                                                                                                                                                                                                                                                                                                                                                                                                                                                                                              
  8.000000E+02  1.250000E+02 -5.225000E+03  9.710648E-08 -1.399420E-09  9.041430E-10 -9.709218E-08  5.638963E-10 -8.159879E-12  5.271974E-12 -5.638126E-10  0.000000E+00  0.000000E+00  0.000000E+00  0.000000E+00  0.000000E+00  0.000000E+00  0.000000E+00  0.000000E+00  9.754486E-02 -1.456238E-03  9.408526E-04 -9.752945E-02                                                                                                                                                                                                                                                                                                                                                                                                                                                                                              
  9.350000E+02  1.250000E+02 -5.225000E+03  9.747977E-08 -1.877362E-09  9.333770E-10 -9.745722E-08  5.660625E-10 -1.094669E-11  5.442428E-12 -5.659305E-10  0.000000E+00  0.000000E+00  0.000000E+00  0.000000E+00  0.000000E+00  0.000000E+00  0.000000E+00  0.000000E+00  9.791986E-02 -1.953586E-03  9.712734E-04 -9.789555E-02                                                                                                                                                                                                                                                                                                                                                                                                                                                                                              
  1.185000E+03  1.250000E+02 -5.225000E+03  9.885913E-08 -2.031487E-09  9.540694E-10 -9.883365E-08  5.740675E-10 -1.184535E-11  5.563064E-12 -5.739183E-10  0.000000E+00  0.000000E+00  0.000000E+00  0.000000E+00  0.000000E+00  0.000000E+00  0.000000E+00  0.000000E+00  9.930454E-02 -2.113970E-03  9.928062E-04 -9.927708E-02                                                                                                                                                                                                                                                                                                                                                                                                                                                                                              
  1.435000E+03  1.250000E+02 -5.225000E+03  9.990232E-08 -8.778147E-10  8.910388E-10 -9.989449E-08  5.801214E-10 -5.118419E-12  5.195527E-12 -5.800756E-10  0.000000E+00  0.000000E+00  0.000000E+00  0.000000E+00  0.000000E+00  0.000000E+00  0.000000E+00  0.000000E+00  1.003509E-01 -9.134560E-04  9.272171E-04 -1.003425E-01                                                                                                                                                                                                                                                                                                                                                                                                                                                                                              
  1.250000E+02  1.250000E+02 -4.975000E+03  1.971732E-07  1.272971E-09  1.681942E-09 -1.971619E-07  1.131478E-09  7.321710E-12  9.673977E-12 -1.131413E-09  0.000000E+00  0.000000E+00  0.000000E+00  0.000000E+00  0.000000E+00  0.000000E+00  0.000000E+00  0.000000E+00  1.895287E-01  1.262911E-03  1.668650E-03 -1.895171E-01                                                                                                                                                                                                                                                                                                                                                                                                                                                                                              
  3.750000E+02  1.250000E+02 -4.975000E+03  1.938497E-07  2.106039E-09  1.800660E-09 -1.938299E-07  1.112418E-09  1.211326E-11  1.035684E-11 -1.112304E-09  0.000000E+00  0.000000E+00  0.000000E+00  0.000000E+00  0.000000E+00  0.000000E+00  0.000000E+00  0.000000E+00  1.863188E-01  2.089395E-03  1.786427E-03 -1.862986E-01                                                                                                                                                                                                                                                                                                                                                                                                                                                                                              
  6.250000E+02  1.250000E+02 -4.975000E+03  1.910832E-07 -3.974293E-11  1.648591E-09 -1.910761E-07  1.096526E-09 -2.285934E-13  9.482214E-12 -1.096485E-09  0.000000E+00  0.000000E+00  0.000000E+00  0.000000E+00  0.000000E+00  0.000000E+00  0.000000E+00  0.000000E+00  1.836105E-01 -3.942812E-05  1.635560E-03 -1.836033E-01                                                                                                                                                                                                                                                                                                                                                                                                                                                                                              
  7.600000E+02  1.250000E+02 -4.975000E+03  1.917233E-07 -1.867554E-09  1.756513E-09 -1.917061E-07  1.100192E-09 -1.074160E-11  1.010293E-11 -1.100093E-09  0.000000E+00  0.000000E+00  0.000000E+00  0.000000E+00  0.000000E+00  0.000000E+00  0.000000E+00  0.000000E+00  1.842234E-01 -1.852791E-03  1.742627E-03 -1.842058E-01                                                                                                                                                                                                                                                                                                                                                                                                                                                                                              
  7.800000E+02  1.250000E+02 -4.975000E+03  1.918603E-07 -2.106995E-09  1.773662E-09 -1.918405E-07  1.100976E-09 -1.211879E-11  1.020157E-11 -1.100862E-09  0.000000E+00  0.000000E+00  0.000000E+00  0.000000E+00  0.000000E+00  0.000000E+00  0.000000E+00  0.000000E+00  1.843541E-01 -2.090340E-03  1.759641E-03 -1.843339E-01                                                                                                                                                                                                                                                                                                                                                                                                                                                                                              
  8.000000E+02  1.250000E+02 -4.975000E+03  1.919493E-07 -2.342049E-09  1.791658E-09 -1.919267E-07  1.101517E-09 -1.347073E-11  1.030507E-11 -1.101386E-09  0.000000E+00  0.000000E+00  0.000000E+00  0.000000E+00  0.000000E+00  0.000000E+00  0.000000E+00  0.000000E+00  1.844792E-01 -2.323536E-03  1.777497E-03 -1.844561E-01                                                                                                                                                                                                                                                                                                                                                                                                                                                                                              
  9.350000E+02  1.250000E+02 -4.975000E+03  1.931796E-07 -3.409199E-09  1.919333E-09 -1.931400E-07  1.108574E-09 -1.960855E-11  1.103939E-11 -1.108345E-09  0.000000E+00  0.000000E+00  0.000000E+00  0.000000E+00  0.000000E+00  0.000000E+00  0.000000E+00  0.000000E+00  1.856728E-01 -3.382256E-03  1.904161E-03 -1.856323E-01                                                                                                                                                                                                                                                                                                                                                                                                                                                                                              
  1.185000E+03  1.250000E+02 -4.975000E+03  1.967808E-07 -3.838557E-09  1.949524E-09 -1.967337E-07  1.129232E-09 -2.207799E-11  1.121298E-11 -1.128961E-09  0.000000E+00  0.000000E+00  0.000000E+00  0.000000E+00  0.000000E+00  0.000000E+00  0.000000E+00  0.000000E+00  1.891563E-01 -3.808231E-03  1.934119E-03 -1.891081E-01                                                                                                                                                                                                                                                                                                                                                                                                                                                                                              
  1.435000E+03  1.250000E+02 -4.975000E+03  1.990826E-07 -1.659156E-09  1.548759E-09 -1.990697E-07  1.142458E-09 -9.542837E-12  8.907879E-12 -1.142384E-09  0.000000E+00  0.000000E+00  0.000000E+00  0.000000E+00  0.000000E+00  0.000000E+00  0.000000E+00  0.000000E+00  1.914052E-01 -1.646051E-03  1.536527E-03 -1.913919E-01                                                                                                                                                                                                                                                                                                                                                                                                                                                                                              
  1.250000E+02  1.250000E+02 -4.725000E+03  3.066214E-07  3.780440E-09  3.762778E-09 -3.065750E-07  1.698457E-09  2.145160E-11  2.135151E-11 -1.698187E-09  0.000000E+00  0.000000E+00  0.000000E+00  0.000000E+00  0.000000E+00  0.000000E+00  0.000000E+00  0.000000E+00  2.160074E-01  3.564370E-03  3.547718E-03 -2.159489E-01                                                                                                                                                                                                                                                                                                                                                                                                                                                                                              
  3.750000E+02  1.250000E+02 -4.725000E+03  2.991003E-07  6.831916E-09  4.811639E-09 -2.989835E-07  1.651709E-09  3.876502E-11  2.730130E-11 -1.651028E-09  0.000000E+00  0.000000E+00  0.000000E+00  0.000000E+00  0.000000E+00  0.000000E+00  0.000000E+00  0.000000E+00  1.998525E-01  6.440591E-03  4.535293E-03 -1.996972E-01                                                                                                                                                                                                                                                                                                                                                                                                                                                                                              
  6.250000E+02  1.250000E+02 -4.725000E+03  2.904400E-07  1.345704E-09  3.980608E-09 -2.904096E-07  1.600920E-09  7.635880E-12  2.258111E-11 -1.600742E-09  0.000000E+00  0.000000E+00  0.000000E+00  0.000000E+00  0.000000E+00  0.000000E+00  0.000000E+00  0.000000E+00  1.870853E-01  1.269351E-03  3.749790E-03 -1.870434E-01                                                                                                                                                                                                                                                                                                                                                                                                                                                                                              
  7.600000E+02  1.250000E+02 -4.725000E+03  2.895638E-07 -3.967737E-09  4.380816E-09 -2.895035E-07  1.596248E-09 -2.251057E-11  2.485267E-11 -1.595896E-09  0.000000E+00  0.000000E+00  0.000000E+00  0.000000E+00  0.000000E+00  0.000000E+00  0.000000E+00  0.000000E+00  1.866577E-01 -3.737684E-03  4.126814E-03 -1.865746E-01                                                                                                                                                                                                                                                                                                                                                                                                                                                                                              
  7.800000E+02  1.250000E+02 -4.725000E+03  2.888054E-07 -5.165520E-09  4.461696E-09 -2.887247E-07  1.592014E-09 -2.930677E-11  2.531175E-11 -1.591543E-09  0.000000E+00  0.000000E+00  0.000000E+00  0.000000E+00  0.000000E+00  0.000000E+00  0.000000E+00  0.000000E+00  1.859181E-01 -4.866967E-03  4.203001E-03 -1.858069E-01                                                                                                                                                                                                                                                                                                                                                                                                                                                                                              
  8.000000E+02  1.250000E+02 -4.725000E+03  2.956175E-07 -5.909992E-09  4.571759E-09 -2.955231E-07  1.630985E-09 -3.353225E-11  2.593759E-11 -1.630434E-09  0.000000E+00  0.000000E+00  0.000000E+00  0.000000E+00  0.000000E+00  0.000000E+00  0.000000E+00  0.000000E+00  1.942543E-01 -5.569727E-03  4.308179E-03 -1.941267E-01                                                                                                                                                                                                                                                                                                                                                                                                                                                                                              
  9.350000E+02  1.250000E+02 -4.725000E+03  2.975456E-07 -7.760006E-09  5.201438E-09 -2.973989E-07  1.642706E-09 -4.403152E-11  2.951258E-11 -1.641850E-09  0.000000E+00  0.000000E+00  0.000000E+00  0.000000E+00  0.000000E+00  0.000000E+00  0.000000E+00  0.000000E+00  1.978766E-01 -7.315225E-03  4.902366E-03 -1.976806E-01                                                                                                                                                                                                                                                                                                                                                                                                                                                                                              
  1.185000E+03  1.250000E+02 -4.725000E+03  3.051005E-07 -8.003387E-09  5.244626E-09 -3.049505E-07  1.690029E-09 -4.541474E-11  2.975916E-11 -1.689157E-09  0.000000E+00  0.000000E+00  0.000000E+00  0.000000E+00  0.000000E+00  0.000000E+00  0.000000E+00  0.000000E+00  2.149087E-01 -7.546664E-03  4.944620E-03 -2.147192E-01                                                                                                                                                                                                                                                                                                                                                                                                                                                                                              