Title="TOUGHREACT V3.30-OMP flowvector.tec: Liq & Gas Fluxes (kg/s/m^2), Pore Velocities (m/s), & Heat Fluxes (J/s/m2)"                                                                                                                                                                                                                                                                                                                                                                                                                                                                                                                                                                                                                                                                                                         
Variables= "X(m)"     "Y(m)"      "Z(m)"     "FluxLiq"   "FluxLiq_X"   "FluxLiq_Y"   "FluxLiq_Z"   "PorVelLiq"  "PorVelLiqX"  "PorVelLiqY"  "PorVelLiqZ"     "FluxGas"   "FluxGas_X"   "FluxGas_Y"   "FluxGas_Z"   "PorVelGas"  "PorVelGasX"  "PorVelGasY"  "PorVelGasZ"    "HeatFlux"  "HeatFlux_X"  "HeatFlux_Y"  "HeatFlux_Z"                                                                                                                                                                                                                                                                                                                                                                                                                                                                                                
Zone T= "2.00000000E+10 sec" I=     9 J=    10 K=    23 F=Point
  1.250000E+02  1.250000E+02 -5.425000E+03  3.698761E-09  2.269866E-11 -6.343746E-11  3.698147E-09  2.161289E-11  1.337024E-13 -3.736670E-13  2.160924E-11  0.000000E+00  0.000000E+00  0.000000E+00  0.000000E+00  0.000000E+00  0.000000E+00  0.000000E+00  0.000000E+00  4.064426E-03  2.494268E-05 -6.970903E-05  4.063752E-03                                                                                                                                                                                                                                                                                                                                                                                                                                                                                              
  3.750000E+02  1.250000E+02 -5.425000E+03  3.673641E-09  1.187650E-10 -6.910798E-11  3.671071E-09  2.146630E-11  6.995641E-13 -4.070683E-13  2.145103E-11  0.000000E+00  0.000000E+00  0.000000E+00  0.000000E+00  0.000000E+00  0.000000E+00  0.000000E+00  0.000000E+00  4.036826E-03  1.305063E-04 -7.594021E-05  4.034001E-03                                                                                                                                                                                                                                                                                                                                                                                                                                                                                              
  6.250000E+02  1.250000E+02 -5.425000E+03  3.667776E-09  3.097315E-10 -8.473150E-11  3.653692E-09  2.143312E-11  1.824419E-12 -4.990962E-13  2.134950E-11  0.000000E+00  0.000000E+00  0.000000E+00  0.000000E+00  0.000000E+00  0.000000E+00  0.000000E+00  0.000000E+00  4.030383E-03  3.403524E-04 -9.310838E-05  4.014907E-03                                                                                                                                                                                                                                                                                                                                                                                                                                                                                              
  7.600000E+02  1.250000E+02 -5.425000E+03  3.705074E-09  4.345638E-10 -9.900515E-11  3.678169E-09  2.165228E-11  2.559723E-12 -5.831727E-13  2.149253E-11  0.000000E+00  0.000000E+00  0.000000E+00  0.000000E+00  0.000000E+00  0.000000E+00  0.000000E+00  0.000000E+00  4.071368E-03  4.775260E-04 -1.087932E-04  4.041803E-03                                                                                                                                                                                                                                                                                                                                                                                                                                                                                              
  7.800000E+02  1.250000E+02 -5.425000E+03  3.710784E-09  4.486818E-10 -1.011808E-10  3.682169E-09  2.168580E-11  2.642883E-12 -5.959877E-13  2.151590E-11  0.000000E+00  0.000000E+00  0.000000E+00  0.000000E+00  0.000000E+00  0.000000E+00  0.000000E+00  0.000000E+00  4.077642E-03  4.930396E-04 -1.111838E-04  4.046198E-03                                                                                                                                                                                                                                                                                                                                                                                                                                                                                              
  8.000000E+02  1.250000E+02 -5.425000E+03  3.716811E-09  4.620358E-10 -1.034165E-10  3.686531E-09  2.172118E-11  2.721542E-12 -6.091571E-13  2.154139E-11  0.000000E+00  0.000000E+00  0.000000E+00  0.000000E+00  0.000000E+00  0.000000E+00  0.000000E+00  0.000000E+00  4.084265E-03  5.077138E-04 -1.136406E-04  4.050991E-03                                                                                                                                                                                                                                                                                                                                                                                                                                                                                              
  9.350000E+02  1.250000E+02 -5.425000E+03  3.755078E-09  5.117465E-10 -1.188931E-10  3.718143E-09  2.194541E-11  3.014355E-12 -7.003197E-13  2.172612E-11  0.000000E+00  0.000000E+00  0.000000E+00  0.000000E+00  0.000000E+00  0.000000E+00  0.000000E+00  0.000000E+00  4.126313E-03  5.623390E-04 -1.306473E-04  4.085727E-03                                                                                                                                                                                                                                                                                                                                                                                                                                                                                              
  1.185000E+03  1.250000E+02 -5.425000E+03  3.842356E-09  4.804399E-10 -1.536353E-10  3.809104E-09  2.245507E-11  2.829950E-12 -9.049628E-13  2.225764E-11  0.000000E+00  0.000000E+00  0.000000E+00  0.000000E+00  0.000000E+00  0.000000E+00  0.000000E+00  0.000000E+00  4.222217E-03  5.279371E-04 -1.688240E-04  4.185678E-03                                                                                                                                                                                                                                                                                                                                                                                                                                                                                              
  1.435000E+03  1.250000E+02 -5.425000E+03  3.909033E-09  2.029461E-10 -1.770481E-10  3.899744E-09  2.284245E-11  1.195420E-12 -1.042872E-12  2.278729E-11  0.000000E+00  0.000000E+00  0.000000E+00  0.000000E+00  0.000000E+00  0.000000E+00  0.000000E+00  0.000000E+00  4.295483E-03  2.230096E-04 -1.945513E-04  4.285276E-03                                                                                                                                                                                                                                                                                                                                                                                                                                                                                              
  1.250000E+02  1.250000E+02 -5.225000E+03  7.620809E-09  7.115743E-13 -7.852057E-11  7.620404E-09  4.419053E-11  4.121776E-15 -4.548283E-13  4.418819E-11  0.000000E+00  0.000000E+00  0.000000E+00  0.000000E+00  0.000000E+00  0.000000E+00  0.000000E+00  0.000000E+00  8.149551E-03  7.411696E-07 -8.178637E-05  8.149141E-03                                                                                                                                                                                                                                                                                                                                                                                                                                                                                              
  3.750000E+02  1.250000E+02 -5.225000E+03  7.495284E-09  8.004837E-11 -8.476287E-11  7.494377E-09  4.346560E-11  4.636783E-13 -4.909868E-13  4.346035E-11  0.000000E+00  0.000000E+00  0.000000E+00  0.000000E+00  0.000000E+00  0.000000E+00  0.000000E+00  0.000000E+00  8.017246E-03  8.337773E-05 -8.828841E-05  8.016326E-03                                                                                                                                                                                                                                                                                                                                                                                                                                                                                              
  6.250000E+02  1.250000E+02 -5.225000E+03  7.403553E-09  3.220993E-10 -1.062204E-10  7.395780E-09  4.293624E-11  1.865753E-12 -6.152792E-13  4.289127E-11  0.000000E+00  0.000000E+00  0.000000E+00  0.000000E+00  0.000000E+00  0.000000E+00  0.000000E+00  0.000000E+00  7.920520E-03  3.354963E-04 -1.106386E-04  7.912638E-03                                                                                                                                                                                                                                                                                                                                                                                                                                                                                              
  7.600000E+02  1.250000E+02 -5.225000E+03  7.511726E-09  4.961528E-10 -1.255305E-10  7.494271E-09  4.356137E-11  2.873955E-12 -7.271327E-13  4.346038E-11  0.000000E+00  0.000000E+00  0.000000E+00  0.000000E+00  0.000000E+00  0.000000E+00  0.000000E+00  0.000000E+00  8.034330E-03  5.167891E-04 -1.307518E-04  8.016626E-03                                                                                                                                                                                                                                                                                                                                                                                                                                                                                              
  7.800000E+02  1.250000E+02 -5.225000E+03  7.529879E-09  5.169428E-10 -1.285095E-10  7.511014E-09  4.366626E-11  2.994381E-12 -7.443885E-13  4.355711E-11  0.000000E+00  0.000000E+00  0.000000E+00  0.000000E+00  0.000000E+00  0.000000E+00  0.000000E+00  0.000000E+00  8.053429E-03  5.384438E-04 -1.338547E-04  8.034294E-03                                                                                                                                                                                                                                                                                                                                                                                                                                                                                              
  8.000000E+02  1.250000E+02 -5.225000E+03  7.551651E-09  5.365770E-10 -1.316076E-10  7.531414E-09  4.379202E-11  3.108112E-12 -7.623346E-13  4.367493E-11  0.000000E+00  0.000000E+00  0.000000E+00  0.000000E+00  0.000000E+00  0.000000E+00  0.000000E+00  0.000000E+00  8.076320E-03  5.588946E-04 -1.370817E-04  8.055792E-03                                                                                                                                                                                                                                                                                                                                                                                                                                                                                              
  9.350000E+02  1.250000E+02 -5.225000E+03  7.693448E-09  6.128787E-10 -1.532401E-10  7.667466E-09  4.461123E-11  3.550089E-12 -8.876403E-13  4.446089E-11  0.000000E+00  0.000000E+00  0.000000E+00  0.000000E+00  0.000000E+00  0.000000E+00  0.000000E+00  0.000000E+00  8.225674E-03  6.383698E-04 -1.596138E-04  8.199312E-03                                                                                                                                                                                                                                                                                                                                                                                                                                                                                              
  1.185000E+03  1.250000E+02 -5.225000E+03  8.067429E-09  6.066321E-10 -2.066991E-10  8.041933E-09  4.677205E-11  3.513909E-12 -1.197302E-12  4.662450E-11  0.000000E+00  0.000000E+00  0.000000E+00  0.000000E+00  0.000000E+00  0.000000E+00  0.000000E+00  0.000000E+00  8.620445E-03  6.318634E-04 -2.152963E-04  8.594560E-03                                                                                                                                                                                                                                                                                                                                                                                                                                                                                              
  1.435000E+03  1.250000E+02 -5.225000E+03  8.458631E-09  2.667778E-10 -2.413338E-10  8.450978E-09  4.903146E-11  1.545308E-12 -1.397924E-12  4.898716E-11  0.000000E+00  0.000000E+00  0.000000E+00  0.000000E+00  0.000000E+00  0.000000E+00  0.000000E+00  0.000000E+00  9.033587E-03  2.778738E-04 -2.513715E-04  9.025813E-03                                                                                                                                                                                                                                                                                                                                                                                                                                                                                              
  1.250000E+02  1.250000E+02 -4.975000E+03  8.232378E-09 -9.421027E-11 -1.484993E-10  8.230499E-09  4.705405E-11 -5.384450E-13 -8.487258E-13  4.704331E-11  0.000000E+00  0.000000E+00  0.000000E+00  0.000000E+00  0.000000E+00  0.000000E+00  0.000000E+00  0.000000E+00  8.365238E-03 -9.354928E-05 -1.474574E-04  8.363415E-03                                                                                                                                                                                                                                                                                                                                                                                                                                                                                              
  3.750000E+02  1.250000E+02 -4.975000E+03  7.853785E-09 -9.508997E-11 -1.552854E-10  7.851674E-09  4.489482E-11 -5.434728E-13 -8.875101E-13  4.488276E-11  0.000000E+00  0.000000E+00  0.000000E+00  0.000000E+00  0.000000E+00  0.000000E+00  0.000000E+00  0.000000E+00  7.984477E-03 -9.442281E-05 -1.541960E-04  7.982429E-03                                                                                                                                                                                                                                                                                                                                                                                                                                                                                              
  6.250000E+02  1.250000E+02 -4.975000E+03  7.477500E-09  3.683014E-10 -2.088796E-10  7.465502E-09  4.275020E-11  2.104971E-12 -1.193818E-12  4.268165E-11  0.000000E+00  0.000000E+00  0.000000E+00  0.000000E+00  0.000000E+00  0.000000E+00  0.000000E+00  0.000000E+00  7.606642E-03  3.657165E-04 -2.074134E-04  7.595014E-03                                                                                                                                                                                                                                                                                                                                                                                                                                                                                              
  7.600000E+02  1.250000E+02 -4.975000E+03  7.663114E-09  7.704983E-10 -2.476639E-10  7.620257E-09  4.381104E-11  4.403667E-12 -1.415485E-12  4.356617E-11  0.000000E+00  0.000000E+00  0.000000E+00  0.000000E+00  0.000000E+00  0.000000E+00  0.000000E+00  0.000000E+00  7.793821E-03  7.650905E-04 -2.459257E-04  7.752277E-03                                                                                                                                                                                                                                                                                                                                                                                                                                                                                              
  7.800000E+02  1.250000E+02 -4.975000E+03  7.698413E-09  8.350511E-10 -2.542575E-10  7.648765E-09  4.401270E-11  4.772611E-12 -1.453170E-12  4.372903E-11  0.000000E+00  0.000000E+00  0.000000E+00  0.000000E+00  0.000000E+00  0.000000E+00  0.000000E+00  0.000000E+00  7.829332E-03  8.291899E-04 -2.524731E-04  7.781205E-03                                                                                                                                                                                                                                                                                                                                                                                                                                                                                              
  8.000000E+02  1.250000E+02 -4.975000E+03  7.914968E-09  8.860859E-10 -2.618435E-10  7.860853E-09  4.524503E-11  5.064296E-12 -1.496527E-12  4.493580E-11  0.000000E+00  0.000000E+00  0.000000E+00  0.000000E+00  0.000000E+00  0.000000E+00  0.000000E+00  0.000000E+00  8.045082E-03  8.798679E-04 -2.600060E-04  7.992595E-03                                                                                                                                                                                                                                                                                                                                                                                                                                                                                              
  9.350000E+02  1.250000E+02 -4.975000E+03  8.277110E-09  1.054604E-09 -3.133854E-10  8.203667E-09  4.731096E-11  6.027447E-12 -1.791109E-12  4.689124E-11  0.000000E+00  0.000000E+00  0.000000E+00  0.000000E+00  0.000000E+00  0.000000E+00  0.000000E+00  0.000000E+00  8.409346E-03  1.047206E-03 -3.111868E-04  8.338082E-03                                                                                                                                                                                                                                                                                                                                                                                                                                                                                              
  1.185000E+03  1.250000E+02 -4.975000E+03  9.196588E-09  1.165079E-09 -4.652115E-10  9.110620E-09  5.255706E-11  6.658866E-12 -2.658856E-12  5.206568E-11  0.000000E+00  0.000000E+00  0.000000E+00  0.000000E+00  0.000000E+00  0.000000E+00  0.000000E+00  0.000000E+00  9.335965E-03  1.156908E-03 -4.619483E-04  9.252481E-03                                                                                                                                                                                                                                                                                                                                                                                                                                                                                              
  1.435000E+03  1.250000E+02 -4.975000E+03  1.038332E-08  5.628265E-10 -5.488915E-10  1.035352E-08  5.932264E-11  3.216772E-12 -3.137129E-12  5.915223E-11  0.000000E+00  0.000000E+00  0.000000E+00  0.000000E+00  0.000000E+00  0.000000E+00  0.000000E+00  0.000000E+00  1.053118E-02  5.588810E-04 -5.450441E-04  1.050220E-02                                                                                                                                                                                                                                                                                                                                                                                                                                                                                              
  1.250000E+02  1.250000E+02 -4.725000E+03  9.097867E-09 -1.586345E-10 -1.760744E-10  9.094780E-09  4.992150E-11 -8.941619E-13 -9.924707E-13  4.990362E-11  0.000000E+00  0.000000E+00  0.000000E+00  0.000000E+00  0.000000E+00  0.000000E+00  0.000000E+00  0.000000E+00  8.784353E-03 -1.491727E-04 -1.655817E-04  8.781525E-03                                                                                                                                                                                                                                                                                                                                                                                                                                                                                              
  3.750000E+02  1.250000E+02 -4.725000E+03  8.246534E-09 -1.878648E-10 -1.713842E-10  8.242612E-09  4.528919E-11 -1.058895E-12 -9.659020E-13  4.526651E-11  0.000000E+00  0.000000E+00  0.000000E+00  0.000000E+00  0.000000E+00  0.000000E+00  0.000000E+00  0.000000E+00  7.966576E-03 -1.766398E-04 -1.610874E-04  7.962988E-03                                                                                                                                                                                                                                                                                                                                                                                                                                                                                              
  6.250000E+02  1.250000E+02 -4.725000E+03  7.280766E-09  4.660483E-10 -1.976469E-10  7.263145E-09  4.004733E-11  2.626254E-12 -1.113644E-12  3.994561E-11  0.000000E+00  0.000000E+00  0.000000E+00  0.000000E+00  0.000000E+00  0.000000E+00  0.000000E+00  0.000000E+00  7.039576E-03  4.379355E-04 -1.855480E-04  7.023490E-03                                                                                                                                                                                                                                                                                                                                                                                                                                                                                              
  7.600000E+02  1.250000E+02 -4.725000E+03  6.927438E-09  1.090630E-09 -3.331828E-10  6.832928E-09  3.823339E-11  6.145909E-12 -1.877421E-12  3.768946E-11  0.000000E+00  0.000000E+00  0.000000E+00  0.000000E+00  0.000000E+00  0.000000E+00  0.000000E+00  0.000000E+00  6.709665E-03  1.024846E-03 -3.129152E-04  6.623548E-03                                                                                                                                                                                                                                                                                                                                                                                                                                                                                              
  7.800000E+02  1.250000E+02 -4.725000E+03  6.873706E-09  1.302842E-09 -3.592191E-10  6.739540E-09  3.797062E-11  7.341997E-12 -2.024149E-12  3.719900E-11  0.000000E+00  0.000000E+00  0.000000E+00  0.000000E+00  0.000000E+00  0.000000E+00  0.000000E+00  0.000000E+00  6.658833E-03  1.224259E-03 -3.373945E-04  6.536621E-03                                                                                                                                                                                                                                                                                                                                                                                                                                                                                              
  8.000000E+02  1.250000E+02 -4.725000E+03  8.711867E-09  1.413292E-09 -3.921234E-10  8.587518E-09  4.781917E-11  7.964976E-12 -2.209716E-12  4.709935E-11  0.000000E+00  0.000000E+00  0.000000E+00  0.000000E+00  0.000000E+00  0.000000E+00  0.000000E+00  0.000000E+00  8.399402E-03  1.328341E-03 -3.683349E-04  8.285517E-03                                                                                                                                                                                                                                                                                                                                                                                                                                                                                              
  9.350000E+02  1.250000E+02 -4.725000E+03  9.178371E-09  1.652869E-09 -5.991820E-10  9.008413E-09  5.041289E-11  9.316172E-12 -3.376878E-12  4.942939E-11  0.000000E+00  0.000000E+00  0.000000E+00  0.000000E+00  0.000000E+00  0.000000E+00  0.000000E+00  0.000000E+00  8.850552E-03  1.554069E-03 -5.631426E-04  8.694827E-03                                                                                                                                                                                                                                                                                                                                                                                                                                                                                              
  1.185000E+03  1.250000E+02 -4.725000E+03  1.098098E-08  2.066314E-09 -1.014430E-09  1.073700E-08  6.028186E-11  1.164827E-11 -5.717837E-12  5.886872E-11  0.000000E+00  0.000000E+00  0.000000E+00  0.000000E+00  0.000000E+00  0.000000E+00  0.000000E+00  0.000000E+00  1.058046E-02  1.943654E-03 -9.537086E-04  1.035658E-02                                                                                                                                                                                                                                                                                                                                                                                                                                                                                              