Title="TOUGHREACT V3.30-OMP: Aqueous Total & Species Concentrations in mol/kg h2o, Surface & Exchanged Species in mol/kg h2o, Dry blocks in mol/L medium"                                                                                                                                                                                                                                                                                                                                                                                                                                                                                                                                                                                                                                                                       
Variables= "X(m)"   "Y(m)"   "Z(m)"   "P(bar)"     "T(C)"   "SatGas"   "SatLiq"     "aH2O"       "pH"        "t_na+"        "t_cl-"      "t_hco3-"       "t_ca+2"      "t_so4-2"       "t_mg+2"       "t_ba+2"       "t_al+3"     "t_h4sio4"                                                                                                                                                                                                                                                                                                                                                                                                                                                                                                                                                                                    
Zone T= "3.16887907E+03 yr" I=      9J=     10K=     23F=Point 
     125.0000     125.0000   -5425.0000  5.47549E+02  267.488  0.00000E+00  1.00000E+00  1.00001  5.9183  1.0008E-10  9.9996E-11  2.5503E-02  2.5588E-04  9.4410E-11  2.5113E-05  9.6770E-11  3.5213E-04  3.6847E-04                                                                                                                                                                                                                                                                                                                                                                                                                                                                                                                                                                                                            
     375.0000     125.0000   -5425.0000  5.47550E+02  267.488  0.00000E+00  1.00000E+00  1.00001  5.9183  1.0008E-10  9.9995E-11  2.5503E-02  2.5588E-04  9.4408E-11  2.5113E-05  9.6769E-11  3.5213E-04  3.6847E-04                                                                                                                                                                                                                                                                                                                                                                                                                                                                                                                                                                                                            
     625.0000     125.0000   -5425.0000  5.47550E+02  267.489  0.00000E+00  1.00000E+00  1.00001  5.9183  1.0008E-10  9.9994E-11  2.5504E-02  2.5588E-04  9.4407E-11  2.5113E-05  9.6768E-11  3.5213E-04  3.6847E-04                                                                                                                                                                                                                                                                                                                                                                                                                                                                                                                                                                                                            
     760.0000     125.0000   -5425.0000  5.47549E+02  267.489  0.00000E+00  1.00000E+00  1.00001  5.9183  1.0008E-10  9.9994E-11  2.5504E-02  2.5588E-04  9.4408E-11  2.5113E-05  9.6768E-11  3.5213E-04  3.6847E-04                                                                                                                                                                                                                                                                                                                                                                                                                                                                                                                                                                                                            
     780.0000     125.0000   -5425.0000  5.47549E+02  267.489  0.00000E+00  1.00000E+00  1.00001  5.9183  1.0008E-10  9.9994E-11  2.5504E-02  2.5588E-04  9.4408E-11  2.5113E-05  9.6769E-11  3.5213E-04  3.6847E-04                                                                                                                                                                                                                                                                                                                                                                                                                                                                                                                                                                                                            
     800.0000     125.0000   -5425.0000  5.47549E+02  267.489  0.00000E+00  1.00000E+00  1.00001  5.9183  1.0008E-10  9.9994E-11  2.5504E-02  2.5588E-04  9.4408E-11  2.5113E-05  9.6769E-11  3.5213E-04  3.6847E-04                                                                                                                                                                                                                                                                                                                                                                                                                                                                                                                                                                                                            
     935.0000     125.0000   -5425.0000  5.47548E+02  267.489  0.00000E+00  1.00000E+00  1.00001  5.9183  1.0008E-10  9.9995E-11  2.5503E-02  2.5588E-04  9.4408E-11  2.5113E-05  9.6769E-11  3.5213E-04  3.6847E-04                                                                                                                                                                                                                                                                                                                                                                                                                                                                                                                                                                                                            
    1185.0000     125.0000   -5425.0000  5.47545E+02  267.488  0.00000E+00  1.00000E+00  1.00001  5.9183  1.0008E-10  9.9997E-11  2.5503E-02  2.5588E-04  9.4410E-11  2.5113E-05  9.6771E-11  3.5213E-04  3.6847E-04                                                                                                                                                                                                                                                                                                                                                                                                                                                                                                                                                                                                            
    1435.0000     125.0000   -5425.0000  5.47543E+02  267.489  0.00000E+00  1.00000E+00  1.00001  5.9183  1.0008E-10  9.9998E-11  2.5503E-02  2.5588E-04  9.4412E-11  2.5113E-05  9.6773E-11  3.5213E-04  3.6847E-04                                                                                                                                                                                                                                                                                                                                                                                                                                                                                                                                                                                                            
     125.0000     125.0000   -5225.0000  5.31025E+02  238.238  0.00000E+00  1.00000E+00  1.00001  6.2503  1.0002E-10  1.0005E-10  5.6925E-03  2.7201E-04  1.0280E-10  2.9046E-05  1.0163E-10  3.5325E-04  3.4398E-04                                                                                                                                                                                                                                                                                                                                                                                                                                                                                                                                                                                                            
     375.0000     125.0000   -5225.0000  5.31026E+02  238.236  0.00000E+00  1.00000E+00  1.00001  6.2504  1.0002E-10  1.0005E-10  5.6919E-03  2.7201E-04  1.0280E-10  2.9046E-05  1.0163E-10  3.5325E-04  3.4398E-04                                                                                                                                                                                                                                                                                                                                                                                                                                                                                                                                                                                                            
     625.0000     125.0000   -5225.0000  5.31027E+02  238.235  0.00000E+00  1.00000E+00  1.00001  6.2504  1.0002E-10  1.0005E-10  5.6916E-03  2.7201E-04  1.0280E-10  2.9047E-05  1.0163E-10  3.5325E-04  3.4398E-04                                                                                                                                                                                                                                                                                                                                                                                                                                                                                                                                                                                                            
     760.0000     125.0000   -5225.0000  5.31026E+02  238.236  0.00000E+00  1.00000E+00  1.00001  6.2504  1.0002E-10  1.0005E-10  5.6919E-03  2.7201E-04  1.0280E-10  2.9046E-05  1.0163E-10  3.5325E-04  3.4398E-04                                                                                                                                                                                                                                                                                                                                                                                                                                                                                                                                                                                                            
     780.0000     125.0000   -5225.0000  5.31026E+02  238.237  0.00000E+00  1.00000E+00  1.00001  6.2504  1.0002E-10  1.0005E-10  5.6919E-03  2.7201E-04  1.0280E-10  2.9046E-05  1.0163E-10  3.5325E-04  3.4398E-04                                                                                                                                                                                                                                                                                                                                                                                                                                                                                                                                                                                                            
     800.0000     125.0000   -5225.0000  5.31026E+02  238.237  0.00000E+00  1.00000E+00  1.00001  6.2504  1.0002E-10  1.0005E-10  5.6920E-03  2.7201E-04  1.0280E-10  2.9046E-05  1.0163E-10  3.5325E-04  3.4398E-04                                                                                                                                                                                                                                                                                                                                                                                                                                                                                                                                                                                                            
     935.0000     125.0000   -5225.0000  5.31024E+02  238.238  0.00000E+00  1.00000E+00  1.00001  6.2503  1.0002E-10  1.0005E-10  5.6924E-03  2.7201E-04  1.0280E-10  2.9046E-05  1.0163E-10  3.5325E-04  3.4398E-04                                                                                                                                                                                                                                                                                                                                                                                                                                                                                                                                                                                                            
    1185.0000     125.0000   -5225.0000  5.31021E+02  238.243  0.00000E+00  1.00000E+00  1.00001  6.2503  1.0002E-10  1.0005E-10  5.6939E-03  2.7201E-04  1.0280E-10  2.9046E-05  1.0163E-10  3.5325E-04  3.4398E-04                                                                                                                                                                                                                                                                                                                                                                                                                                                                                                                                                                                                            
    1435.0000     125.0000   -5225.0000  5.31019E+02  238.248  0.00000E+00  1.00000E+00  1.00001  6.2502  1.0002E-10  1.0005E-10  5.6953E-03  2.7200E-04  1.0280E-10  2.9045E-05  1.0163E-10  3.5325E-04  3.4398E-04                                                                                                                                                                                                                                                                                                                                                                                                                                                                                                                                                                                                            
     125.0000     125.0000   -4975.0000  5.09825E+02  227.289  0.00000E+00  1.00000E+00  1.00001  6.3902  9.9979E-11  9.9989E-11  3.1948E-03  2.7535E-04  1.0112E-10  3.0489E-05  1.0064E-10  3.4507E-04  3.4078E-04                                                                                                                                                                                                                                                                                                                                                                                                                                                                                                                                                                                                            
     375.0000     125.0000   -4975.0000  5.09828E+02  227.281  0.00000E+00  1.00000E+00  1.00001  6.3903  9.9937E-11  9.9947E-11  3.1935E-03  2.7536E-04  1.0107E-10  3.0490E-05  1.0059E-10  3.4506E-04  3.4078E-04                                                                                                                                                                                                                                                                                                                                                                                                                                                                                                                                                                                                            
     625.0000     125.0000   -4975.0000  5.09831E+02  227.272  0.00000E+00  1.00000E+00  1.00001  6.3904  9.9850E-11  9.9860E-11  3.1919E-03  2.7536E-04  1.0098E-10  3.0491E-05  1.0050E-10  3.4505E-04  3.4079E-04                                                                                                                                                                                                                                                                                                                                                                                                                                                                                                                                                                                                            
     760.0000     125.0000   -4975.0000  5.09830E+02  227.273  0.00000E+00  1.00000E+00  1.00001  6.3904  9.9850E-11  9.9859E-11  3.1921E-03  2.7536E-04  1.0098E-10  3.0491E-05  1.0050E-10  3.4505E-04  3.4079E-04                                                                                                                                                                                                                                                                                                                                                                                                                                                                                                                                                                                                            
     780.0000     125.0000   -4975.0000  5.09829E+02  227.274  0.00000E+00  1.00000E+00  1.00001  6.3904  9.9850E-11  9.9859E-11  3.1922E-03  2.7536E-04  1.0098E-10  3.0491E-05  1.0051E-10  3.4505E-04  3.4078E-04                                                                                                                                                                                                                                                                                                                                                                                                                                                                                                                                                                                                            
     800.0000     125.0000   -4975.0000  5.09829E+02  227.280  0.00000E+00  1.00000E+00  1.00001  6.3903  9.9896E-11  9.9905E-11  3.1932E-03  2.7536E-04  1.0103E-10  3.0490E-05  1.0055E-10  3.4506E-04  3.4079E-04                                                                                                                                                                                                                                                                                                                                                                                                                                                                                                                                                                                                            
     935.0000     125.0000   -4975.0000  5.09827E+02  227.285  0.00000E+00  1.00000E+00  1.00001  6.3903  9.9929E-11  9.9938E-11  3.1940E-03  2.7536E-04  1.0107E-10  3.0489E-05  1.0059E-10  3.4507E-04  3.4078E-04                                                                                                                                                                                                                                                                                                                                                                                                                                                                                                                                                                                                            
    1185.0000     125.0000   -4975.0000  5.09821E+02  227.298  0.00000E+00  1.00000E+00  1.00001  6.3901  9.9981E-11  9.9991E-11  3.1963E-03  2.7535E-04  1.0112E-10  3.0487E-05  1.0064E-10  3.4509E-04  3.4078E-04                                                                                                                                                                                                                                                                                                                                                                                                                                                                                                                                                                                                            
    1435.0000     125.0000   -4975.0000  5.09818E+02  227.312  0.00000E+00  1.00000E+00  1.00001  6.3899  9.9996E-11  1.0001E-10  3.1987E-03  2.7535E-04  1.0114E-10  3.0485E-05  1.0066E-10  3.4510E-04  3.4078E-04                                                                                                                                                                                                                                                                                                                                                                                                                                                                                                                                                                                                            
     125.0000     125.0000   -4725.0000  4.88355E+02  215.863  0.00000E+00  1.00000E+00  1.00001  6.5464  9.6492E-11  9.6494E-11  1.7598E-03  2.7598E-04  9.6746E-11  3.1880E-05  9.6635E-11  3.3627E-04  3.3525E-04                                                                                                                                                                                                                                                                                                                                                                                                                                                                                                                                                                                                            
     375.0000     125.0000   -4725.0000  4.88357E+02  215.451  0.00000E+00  1.00000E+00  1.00001  6.5522  9.5331E-11  9.5333E-11  1.7230E-03  2.7600E-04  9.5512E-11  3.1934E-05  9.5433E-11  3.3584E-04  3.3508E-04                                                                                                                                                                                                                                                                                                                                                                                                                                                                                                                                                                                                            
     625.0000     125.0000   -4725.0000  4.88358E+02  214.743  0.00000E+00  1.00000E+00  1.00001  6.5622  9.3571E-11  9.3572E-11  1.6617E-03  2.7600E-04  9.3681E-11  3.2023E-05  9.3633E-11  3.3519E-04  3.3470E-04                                                                                                                                                                                                                                                                                                                                                                                                                                                                                                                                                                                                            
     760.0000     125.0000   -4725.0000  4.88357E+02  214.709  0.00000E+00  1.00000E+00  1.00001  6.5627  9.3484E-11  9.3485E-11  1.6587E-03  2.7600E-04  9.3603E-11  3.2027E-05  9.3558E-11  3.3515E-04  3.3469E-04                                                                                                                                                                                                                                                                                                                                                                                                                                                                                                                                                                                                            
     780.0000     125.0000   -4725.0000  4.88357E+02  214.689  0.00000E+00  1.00000E+00  1.00001  6.5629  9.3474E-11  9.3475E-11  1.6571E-03  2.7600E-04  9.3760E-11  3.2030E-05  9.3715E-11  3.3514E-04  3.3467E-04                                                                                                                                                                                                                                                                                                                                                                                                                                                                                                                                                                                                            
     800.0000     125.0000   -4725.0000  4.88357E+02  215.233  0.00000E+00  1.00000E+00  1.00001  6.5552  9.4482E-11  9.4483E-11  1.7038E-03  2.7601E-04  9.4774E-11  3.1963E-05  9.4712E-11  3.3559E-04  3.3500E-04                                                                                                                                                                                                                                                                                                                                                                                                                                                                                                                                                                                                            
     935.0000     125.0000   -4725.0000  4.88356E+02  215.503  0.00000E+00  1.00000E+00  1.00001  6.5514  9.5172E-11  9.5173E-11  1.7275E-03  2.7600E-04  9.5482E-11  3.1928E-05  9.5400E-11  3.3588E-04  3.3511E-04                                                                                                                                                                                                                                                                                                                                                                                                                                                                                                                                                                                                            
    1185.0000     125.0000   -4725.0000  4.88353E+02  215.988  0.00000E+00  1.00000E+00  1.00001  6.5446  9.6610E-11  9.6612E-11  1.7711E-03  2.7597E-04  9.6972E-11  3.1864E-05  9.6852E-11  3.3639E-04  3.3532E-04                                                                                                                                                                                                                                                                                                                                                                                                                                                                                                                                                                                                            