Title="TOUGHREACT V3.30-OMP: Aqueous Total & Species Concentrations in mol/kg h2o, Surface & Exchanged Species in mol/kg h2o, Dry blocks in mol/L medium"                                                                                                                                                                                                                                                                                                                                                                                                                                                                                                                                                                                                                                                                       
Variables= "X(m)"   "Y(m)"   "Z(m)"   "P(bar)"     "T(C)"   "SatGas"   "SatLiq"     "aH2O"       "pH"        "t_na+"        "t_cl-"      "t_hco3-"       "t_ca+2"      "t_so4-2"       "t_mg+2"       "t_ba+2"       "t_al+3"     "t_h4sio4"                                                                                                                                                                                                                                                                                                                                                                                                                                                                                                                                                                                    
Zone T= "1.79675443E+03 yr" I=      9J=     10K=     23F=Point 
     125.0000     125.0000   -5425.0000  5.47733E+02  258.559  0.00000E+00  1.00000E+00  1.00001  6.0128  1.0005E-10  1.0002E-10  1.6299E-02  2.6222E-04  9.7851E-11  2.6378E-05  9.8772E-11  3.5330E-04  3.5975E-04                                                                                                                                                                                                                                                                                                                                                                                                                                                                                                                                                                                                            
     375.0000     125.0000   -5425.0000  5.47733E+02  258.559  0.00000E+00  1.00000E+00  1.00001  6.0128  1.0005E-10  1.0002E-10  1.6299E-02  2.6222E-04  9.7850E-11  2.6378E-05  9.8771E-11  3.5330E-04  3.5975E-04                                                                                                                                                                                                                                                                                                                                                                                                                                                                                                                                                                                                            
     625.0000     125.0000   -5425.0000  5.47733E+02  258.560  0.00000E+00  1.00000E+00  1.00001  6.0128  1.0005E-10  1.0002E-10  1.6300E-02  2.6222E-04  9.7849E-11  2.6377E-05  9.8771E-11  3.5330E-04  3.5975E-04                                                                                                                                                                                                                                                                                                                                                                                                                                                                                                                                                                                                            
     760.0000     125.0000   -5425.0000  5.47732E+02  258.560  0.00000E+00  1.00000E+00  1.00001  6.0128  1.0005E-10  1.0002E-10  1.6300E-02  2.6222E-04  9.7850E-11  2.6377E-05  9.8771E-11  3.5330E-04  3.5975E-04                                                                                                                                                                                                                                                                                                                                                                                                                                                                                                                                                                                                            
     780.0000     125.0000   -5425.0000  5.47732E+02  258.560  0.00000E+00  1.00000E+00  1.00001  6.0128  1.0005E-10  1.0002E-10  1.6300E-02  2.6222E-04  9.7850E-11  2.6377E-05  9.8771E-11  3.5330E-04  3.5975E-04                                                                                                                                                                                                                                                                                                                                                                                                                                                                                                                                                                                                            
     800.0000     125.0000   -5425.0000  5.47732E+02  258.560  0.00000E+00  1.00000E+00  1.00001  6.0128  1.0005E-10  1.0002E-10  1.6300E-02  2.6222E-04  9.7850E-11  2.6377E-05  9.8771E-11  3.5330E-04  3.5975E-04                                                                                                                                                                                                                                                                                                                                                                                                                                                                                                                                                                                                            
     935.0000     125.0000   -5425.0000  5.47731E+02  258.560  0.00000E+00  1.00000E+00  1.00001  6.0128  1.0005E-10  1.0002E-10  1.6300E-02  2.6222E-04  9.7850E-11  2.6378E-05  9.8772E-11  3.5330E-04  3.5975E-04                                                                                                                                                                                                                                                                                                                                                                                                                                                                                                                                                                                                            
    1185.0000     125.0000   -5425.0000  5.47728E+02  258.559  0.00000E+00  1.00000E+00  1.00001  6.0128  1.0005E-10  1.0002E-10  1.6299E-02  2.6222E-04  9.7851E-11  2.6378E-05  9.8773E-11  3.5330E-04  3.5975E-04                                                                                                                                                                                                                                                                                                                                                                                                                                                                                                                                                                                                            
    1435.0000     125.0000   -5425.0000  5.47726E+02  258.560  0.00000E+00  1.00000E+00  1.00001  6.0128  1.0005E-10  1.0002E-10  1.6300E-02  2.6222E-04  9.7853E-11  2.6377E-05  9.8774E-11  3.5330E-04  3.5975E-04                                                                                                                                                                                                                                                                                                                                                                                                                                                                                                                                                                                                            
     125.0000     125.0000   -5225.0000  5.31101E+02  238.182  0.00000E+00  1.00000E+00  1.00001  6.2506  1.0003E-10  1.0005E-10  5.6755E-03  2.7249E-04  1.0163E-10  2.9099E-05  1.0096E-10  3.5109E-04  3.4575E-04                                                                                                                                                                                                                                                                                                                                                                                                                                                                                                                                                                                                            
     375.0000     125.0000   -5225.0000  5.31102E+02  238.182  0.00000E+00  1.00000E+00  1.00001  6.2506  1.0003E-10  1.0005E-10  5.6753E-03  2.7249E-04  1.0163E-10  2.9099E-05  1.0096E-10  3.5109E-04  3.4575E-04                                                                                                                                                                                                                                                                                                                                                                                                                                                                                                                                                                                                            
     625.0000     125.0000   -5225.0000  5.31102E+02  238.182  0.00000E+00  1.00000E+00  1.00001  6.2506  1.0003E-10  1.0004E-10  5.6754E-03  2.7249E-04  1.0162E-10  2.9099E-05  1.0095E-10  3.5109E-04  3.4575E-04                                                                                                                                                                                                                                                                                                                                                                                                                                                                                                                                                                                                            
     760.0000     125.0000   -5225.0000  5.31101E+02  238.183  0.00000E+00  1.00000E+00  1.00001  6.2506  1.0003E-10  1.0004E-10  5.6756E-03  2.7249E-04  1.0162E-10  2.9099E-05  1.0095E-10  3.5109E-04  3.4575E-04                                                                                                                                                                                                                                                                                                                                                                                                                                                                                                                                                                                                            
     780.0000     125.0000   -5225.0000  5.31101E+02  238.183  0.00000E+00  1.00000E+00  1.00001  6.2506  1.0003E-10  1.0004E-10  5.6756E-03  2.7249E-04  1.0162E-10  2.9099E-05  1.0095E-10  3.5109E-04  3.4575E-04                                                                                                                                                                                                                                                                                                                                                                                                                                                                                                                                                                                                            
     800.0000     125.0000   -5225.0000  5.31101E+02  238.183  0.00000E+00  1.00000E+00  1.00001  6.2506  1.0003E-10  1.0004E-10  5.6756E-03  2.7249E-04  1.0162E-10  2.9099E-05  1.0095E-10  3.5109E-04  3.4575E-04                                                                                                                                                                                                                                                                                                                                                                                                                                                                                                                                                                                                            
     935.0000     125.0000   -5225.0000  5.31100E+02  238.183  0.00000E+00  1.00000E+00  1.00001  6.2506  1.0003E-10  1.0005E-10  5.6758E-03  2.7249E-04  1.0163E-10  2.9099E-05  1.0096E-10  3.5109E-04  3.4575E-04                                                                                                                                                                                                                                                                                                                                                                                                                                                                                                                                                                                                            
    1185.0000     125.0000   -5225.0000  5.31096E+02  238.187  0.00000E+00  1.00000E+00  1.00001  6.2506  1.0003E-10  1.0005E-10  5.6768E-03  2.7248E-04  1.0163E-10  2.9099E-05  1.0096E-10  3.5109E-04  3.4575E-04                                                                                                                                                                                                                                                                                                                                                                                                                                                                                                                                                                                                            
    1435.0000     125.0000   -5225.0000  5.31094E+02  238.190  0.00000E+00  1.00000E+00  1.00001  6.2505  1.0003E-10  1.0005E-10  5.6778E-03  2.7248E-04  1.0163E-10  2.9098E-05  1.0096E-10  3.5109E-04  3.4575E-04                                                                                                                                                                                                                                                                                                                                                                                                                                                                                                                                                                                                            
     125.0000     125.0000   -4975.0000  5.09901E+02  227.263  0.00000E+00  1.00000E+00  1.00001  6.3904  9.9978E-11  9.9984E-11  3.1902E-03  2.7558E-04  1.0062E-10  3.0515E-05  1.0035E-10  3.4406E-04  3.4162E-04                                                                                                                                                                                                                                                                                                                                                                                                                                                                                                                                                                                                            
     375.0000     125.0000   -4975.0000  5.09904E+02  227.257  0.00000E+00  1.00000E+00  1.00001  6.3905  9.9937E-11  9.9942E-11  3.1892E-03  2.7559E-04  1.0058E-10  3.0516E-05  1.0031E-10  3.4405E-04  3.4162E-04                                                                                                                                                                                                                                                                                                                                                                                                                                                                                                                                                                                                            
     625.0000     125.0000   -4975.0000  5.09906E+02  227.249  0.00000E+00  1.00000E+00  1.00001  6.3906  9.9850E-11  9.9855E-11  3.1880E-03  2.7559E-04  1.0049E-10  3.0518E-05  1.0022E-10  3.4404E-04  3.4162E-04                                                                                                                                                                                                                                                                                                                                                                                                                                                                                                                                                                                                            
     760.0000     125.0000   -4975.0000  5.09905E+02  227.250  0.00000E+00  1.00000E+00  1.00001  6.3905  9.9850E-11  9.9855E-11  3.1881E-03  2.7559E-04  1.0049E-10  3.0518E-05  1.0022E-10  3.4404E-04  3.4162E-04                                                                                                                                                                                                                                                                                                                                                                                                                                                                                                                                                                                                            
     780.0000     125.0000   -4975.0000  5.09904E+02  227.250  0.00000E+00  1.00000E+00  1.00001  6.3905  9.9849E-11  9.9854E-11  3.1881E-03  2.7559E-04  1.0049E-10  3.0518E-05  1.0022E-10  3.4404E-04  3.4162E-04                                                                                                                                                                                                                                                                                                                                                                                                                                                                                                                                                                                                            
     800.0000     125.0000   -4975.0000  5.09904E+02  227.256  0.00000E+00  1.00000E+00  1.00001  6.3905  9.9897E-11  9.9902E-11  3.1891E-03  2.7559E-04  1.0054E-10  3.0517E-05  1.0027E-10  3.4405E-04  3.4162E-04                                                                                                                                                                                                                                                                                                                                                                                                                                                                                                                                                                                                            
     935.0000     125.0000   -4975.0000  5.09901E+02  227.260  0.00000E+00  1.00000E+00  1.00001  6.3904  9.9928E-11  9.9933E-11  3.1897E-03  2.7559E-04  1.0057E-10  3.0516E-05  1.0030E-10  3.4405E-04  3.4162E-04                                                                                                                                                                                                                                                                                                                                                                                                                                                                                                                                                                                                            
    1185.0000     125.0000   -4975.0000  5.09896E+02  227.272  0.00000E+00  1.00000E+00  1.00001  6.3903  9.9981E-11  9.9986E-11  3.1917E-03  2.7558E-04  1.0063E-10  3.0514E-05  1.0036E-10  3.4407E-04  3.4162E-04                                                                                                                                                                                                                                                                                                                                                                                                                                                                                                                                                                                                            
    1435.0000     125.0000   -4975.0000  5.09891E+02  227.284  0.00000E+00  1.00000E+00  1.00001  6.3901  9.9995E-11  1.0000E-10  3.1937E-03  2.7558E-04  1.0065E-10  3.0513E-05  1.0037E-10  3.4408E-04  3.4162E-04                                                                                                                                                                                                                                                                                                                                                                                                                                                                                                                                                                                                            
     125.0000     125.0000   -4725.0000  4.88431E+02  215.831  0.00000E+00  1.00000E+00  1.00001  6.5468  9.6428E-11  9.6428E-11  1.7569E-03  2.7606E-04  9.6535E-11  3.1893E-05  9.6488E-11  3.3589E-04  3.3553E-04                                                                                                                                                                                                                                                                                                                                                                                                                                                                                                                                                                                                            
     375.0000     125.0000   -4725.0000  4.88432E+02  215.422  0.00000E+00  1.00000E+00  1.00001  6.5525  9.5270E-11  9.5270E-11  1.7204E-03  2.7608E-04  9.5313E-11  3.1946E-05  9.5294E-11  3.3548E-04  3.3535E-04                                                                                                                                                                                                                                                                                                                                                                                                                                                                                                                                                                                                            
     625.0000     125.0000   -4725.0000  4.88434E+02  214.720  0.00000E+00  1.00000E+00  1.00001  6.5624  9.3523E-11  9.3523E-11  1.6596E-03  2.7607E-04  9.3510E-11  3.2034E-05  9.3516E-11  3.3487E-04  3.3495E-04                                                                                                                                                                                                                                                                                                                                                                                                                                                                                                                                                                                                            
     760.0000     125.0000   -4725.0000  4.88432E+02  214.687  0.00000E+00  1.00000E+00  1.00001  6.5629  9.3439E-11  9.3439E-11  1.6568E-03  2.7607E-04  9.3435E-11  3.2038E-05  9.3442E-11  3.3483E-04  3.3493E-04                                                                                                                                                                                                                                                                                                                                                                                                                                                                                                                                                                                                            
     780.0000     125.0000   -4725.0000  4.88432E+02  214.667  0.00000E+00  1.00000E+00  1.00001  6.5632  9.3411E-11  9.3411E-11  1.6552E-03  2.7607E-04  9.3581E-11  3.2040E-05  9.3589E-11  3.3482E-04  3.3492E-04                                                                                                                                                                                                                                                                                                                                                                                                                                                                                                                                                                                                            
     800.0000     125.0000   -4725.0000  4.88432E+02  215.206  0.00000E+00  1.00000E+00  1.00001  6.5556  9.4448E-11  9.4448E-11  1.7015E-03  2.7609E-04  9.4608E-11  3.1974E-05  9.4603E-11  3.3525E-04  3.3526E-04                                                                                                                                                                                                                                                                                                                                                                                                                                                                                                                                                                                                            
     935.0000     125.0000   -4725.0000  4.88430E+02  215.473  0.00000E+00  1.00000E+00  1.00001  6.5518  9.5109E-11  9.5109E-11  1.7249E-03  2.7608E-04  9.5281E-11  3.1940E-05  9.5259E-11  3.3552E-04  3.3538E-04                                                                                                                                                                                                                                                                                                                                                                                                                                                                                                                                                                                                            
    1185.0000     125.0000   -4725.0000  4.88426E+02  215.956  0.00000E+00  1.00000E+00  1.00001  6.5450  9.6548E-11  9.6548E-11  1.7681E-03  2.7605E-04  9.6760E-11  3.1877E-05  9.6705E-11  3.3600E-04  3.3560E-04                                                                                                                                                                                                                                                                                                                                                                                                                                                                                                                                                                                                            