Title="TOUGHREACT V3.30-OMP: Aqueous Total & Species Concentrations in mol/kg h2o, Surface & Exchanged Species in mol/kg h2o, Dry blocks in mol/L medium"                                                                                                                                                                                                                                                                                                                                                                                                                                                                                                                                                                                                                                                                       
Variables= "X(m)"   "Y(m)"   "Z(m)"   "P(bar)"     "T(C)"   "SatGas"   "SatLiq"     "aH2O"       "pH"        "t_na+"        "t_cl-"      "t_hco3-"       "t_ca+2"      "t_so4-2"       "t_mg+2"       "t_ba+2"       "t_al+3"     "t_h4sio4"                                                                                                                                                                                                                                                                                                                                                                                                                                                                                                                                                                                    
Zone T= "1.37212464E+03 yr" I=      9J=     10K=     23F=Point 
     125.0000     125.0000   -5425.0000  5.47786E+02  255.798  0.00000E+00  1.00000E+00  1.00001  6.0432  1.0004E-10  1.0003E-10  1.4164E-02  2.6402E-04  9.8588E-11  2.6763E-05  9.9198E-11  3.5329E-04  3.5759E-04                                                                                                                                                                                                                                                                                                                                                                                                                                                                                                                                                                                                            
     375.0000     125.0000   -5425.0000  5.47787E+02  255.799  0.00000E+00  1.00000E+00  1.00001  6.0432  1.0004E-10  1.0003E-10  1.4164E-02  2.6401E-04  9.8588E-11  2.6763E-05  9.9197E-11  3.5329E-04  3.5759E-04                                                                                                                                                                                                                                                                                                                                                                                                                                                                                                                                                                                                            
     625.0000     125.0000   -5425.0000  5.47786E+02  255.799  0.00000E+00  1.00000E+00  1.00001  6.0432  1.0004E-10  1.0002E-10  1.4165E-02  2.6401E-04  9.8587E-11  2.6763E-05  9.9197E-11  3.5329E-04  3.5759E-04                                                                                                                                                                                                                                                                                                                                                                                                                                                                                                                                                                                                            
     760.0000     125.0000   -5425.0000  5.47785E+02  255.799  0.00000E+00  1.00000E+00  1.00001  6.0432  1.0004E-10  1.0003E-10  1.4165E-02  2.6401E-04  9.8587E-11  2.6763E-05  9.9197E-11  3.5329E-04  3.5759E-04                                                                                                                                                                                                                                                                                                                                                                                                                                                                                                                                                                                                            
     780.0000     125.0000   -5425.0000  5.47785E+02  255.799  0.00000E+00  1.00000E+00  1.00001  6.0432  1.0004E-10  1.0003E-10  1.4165E-02  2.6401E-04  9.8587E-11  2.6763E-05  9.9197E-11  3.5329E-04  3.5759E-04                                                                                                                                                                                                                                                                                                                                                                                                                                                                                                                                                                                                            
     800.0000     125.0000   -5425.0000  5.47785E+02  255.799  0.00000E+00  1.00000E+00  1.00001  6.0432  1.0004E-10  1.0003E-10  1.4165E-02  2.6401E-04  9.8588E-11  2.6763E-05  9.9197E-11  3.5329E-04  3.5759E-04                                                                                                                                                                                                                                                                                                                                                                                                                                                                                                                                                                                                            
     935.0000     125.0000   -5425.0000  5.47784E+02  255.799  0.00000E+00  1.00000E+00  1.00001  6.0432  1.0004E-10  1.0003E-10  1.4164E-02  2.6401E-04  9.8588E-11  2.6763E-05  9.9198E-11  3.5329E-04  3.5759E-04                                                                                                                                                                                                                                                                                                                                                                                                                                                                                                                                                                                                            
    1185.0000     125.0000   -5425.0000  5.47780E+02  255.799  0.00000E+00  1.00000E+00  1.00001  6.0432  1.0004E-10  1.0003E-10  1.4164E-02  2.6401E-04  9.8589E-11  2.6763E-05  9.9198E-11  3.5329E-04  3.5759E-04                                                                                                                                                                                                                                                                                                                                                                                                                                                                                                                                                                                                            
    1435.0000     125.0000   -5425.0000  5.47778E+02  255.799  0.00000E+00  1.00000E+00  1.00001  6.0432  1.0005E-10  1.0003E-10  1.4164E-02  2.6401E-04  9.8590E-11  2.6763E-05  9.9200E-11  3.5329E-04  3.5759E-04                                                                                                                                                                                                                                                                                                                                                                                                                                                                                                                                                                                                            
     125.0000     125.0000   -5225.0000  5.31122E+02  238.169  0.00000E+00  1.00000E+00  1.00001  6.2507  1.0003E-10  1.0004E-10  5.6716E-03  2.7264E-04  1.0126E-10  2.9115E-05  1.0074E-10  3.5042E-04  3.4631E-04                                                                                                                                                                                                                                                                                                                                                                                                                                                                                                                                                                                                            
     375.0000     125.0000   -5225.0000  5.31123E+02  238.169  0.00000E+00  1.00000E+00  1.00001  6.2507  1.0003E-10  1.0004E-10  5.6715E-03  2.7264E-04  1.0126E-10  2.9116E-05  1.0074E-10  3.5042E-04  3.4630E-04                                                                                                                                                                                                                                                                                                                                                                                                                                                                                                                                                                                                            
     625.0000     125.0000   -5225.0000  5.31123E+02  238.170  0.00000E+00  1.00000E+00  1.00001  6.2507  1.0003E-10  1.0004E-10  5.6717E-03  2.7264E-04  1.0126E-10  2.9115E-05  1.0074E-10  3.5042E-04  3.4630E-04                                                                                                                                                                                                                                                                                                                                                                                                                                                                                                                                                                                                            
     760.0000     125.0000   -5225.0000  5.31122E+02  238.170  0.00000E+00  1.00000E+00  1.00001  6.2507  1.0003E-10  1.0004E-10  5.6718E-03  2.7264E-04  1.0126E-10  2.9115E-05  1.0074E-10  3.5042E-04  3.4630E-04                                                                                                                                                                                                                                                                                                                                                                                                                                                                                                                                                                                                            
     780.0000     125.0000   -5225.0000  5.31121E+02  238.170  0.00000E+00  1.00000E+00  1.00001  6.2507  1.0003E-10  1.0004E-10  5.6718E-03  2.7264E-04  1.0126E-10  2.9115E-05  1.0074E-10  3.5042E-04  3.4630E-04                                                                                                                                                                                                                                                                                                                                                                                                                                                                                                                                                                                                            
     800.0000     125.0000   -5225.0000  5.31121E+02  238.170  0.00000E+00  1.00000E+00  1.00001  6.2507  1.0003E-10  1.0004E-10  5.6718E-03  2.7264E-04  1.0126E-10  2.9115E-05  1.0074E-10  3.5042E-04  3.4630E-04                                                                                                                                                                                                                                                                                                                                                                                                                                                                                                                                                                                                            
     935.0000     125.0000   -5225.0000  5.31120E+02  238.171  0.00000E+00  1.00000E+00  1.00001  6.2506  1.0003E-10  1.0004E-10  5.6720E-03  2.7264E-04  1.0126E-10  2.9115E-05  1.0074E-10  3.5042E-04  3.4631E-04                                                                                                                                                                                                                                                                                                                                                                                                                                                                                                                                                                                                            
    1185.0000     125.0000   -5225.0000  5.31116E+02  238.173  0.00000E+00  1.00000E+00  1.00001  6.2506  1.0003E-10  1.0004E-10  5.6728E-03  2.7263E-04  1.0126E-10  2.9115E-05  1.0074E-10  3.5042E-04  3.4631E-04                                                                                                                                                                                                                                                                                                                                                                                                                                                                                                                                                                                                            
    1435.0000     125.0000   -5225.0000  5.31113E+02  238.177  0.00000E+00  1.00000E+00  1.00001  6.2506  1.0003E-10  1.0005E-10  5.6737E-03  2.7263E-04  1.0126E-10  2.9115E-05  1.0074E-10  3.5042E-04  3.4631E-04                                                                                                                                                                                                                                                                                                                                                                                                                                                                                                                                                                                                            
     125.0000     125.0000   -4975.0000  5.09922E+02  227.255  0.00000E+00  1.00000E+00  1.00001  6.3904  9.9978E-11  9.9982E-11  3.1889E-03  2.7566E-04  1.0047E-10  3.0524E-05  1.0026E-10  3.4375E-04  3.4187E-04                                                                                                                                                                                                                                                                                                                                                                                                                                                                                                                                                                                                            
     375.0000     125.0000   -4975.0000  5.09925E+02  227.249  0.00000E+00  1.00000E+00  1.00001  6.3905  9.9937E-11  9.9941E-11  3.1879E-03  2.7566E-04  1.0043E-10  3.0525E-05  1.0022E-10  3.4374E-04  3.4187E-04                                                                                                                                                                                                                                                                                                                                                                                                                                                                                                                                                                                                            
     625.0000     125.0000   -4975.0000  5.09927E+02  227.243  0.00000E+00  1.00000E+00  1.00001  6.3906  9.9850E-11  9.9854E-11  3.1868E-03  2.7566E-04  1.0034E-10  3.0526E-05  1.0013E-10  3.4373E-04  3.4187E-04                                                                                                                                                                                                                                                                                                                                                                                                                                                                                                                                                                                                            
     760.0000     125.0000   -4975.0000  5.09925E+02  227.243  0.00000E+00  1.00000E+00  1.00001  6.3906  9.9850E-11  9.9854E-11  3.1869E-03  2.7566E-04  1.0034E-10  3.0526E-05  1.0013E-10  3.4373E-04  3.4187E-04                                                                                                                                                                                                                                                                                                                                                                                                                                                                                                                                                                                                            
     780.0000     125.0000   -4975.0000  5.09925E+02  227.243  0.00000E+00  1.00000E+00  1.00001  6.3906  9.9849E-11  9.9853E-11  3.1869E-03  2.7566E-04  1.0034E-10  3.0526E-05  1.0014E-10  3.4373E-04  3.4187E-04                                                                                                                                                                                                                                                                                                                                                                                                                                                                                                                                                                                                            
     800.0000     125.0000   -4975.0000  5.09924E+02  227.249  0.00000E+00  1.00000E+00  1.00001  6.3905  9.9897E-11  9.9901E-11  3.1879E-03  2.7566E-04  1.0039E-10  3.0525E-05  1.0018E-10  3.4373E-04  3.4187E-04                                                                                                                                                                                                                                                                                                                                                                                                                                                                                                                                                                                                            
     935.0000     125.0000   -4975.0000  5.09921E+02  227.252  0.00000E+00  1.00000E+00  1.00001  6.3905  9.9928E-11  9.9932E-11  3.1884E-03  2.7566E-04  1.0042E-10  3.0524E-05  1.0021E-10  3.4374E-04  3.4187E-04                                                                                                                                                                                                                                                                                                                                                                                                                                                                                                                                                                                                            
    1185.0000     125.0000   -4975.0000  5.09914E+02  227.263  0.00000E+00  1.00000E+00  1.00001  6.3903  9.9981E-11  9.9985E-11  3.1903E-03  2.7565E-04  1.0048E-10  3.0523E-05  1.0027E-10  3.4375E-04  3.4187E-04                                                                                                                                                                                                                                                                                                                                                                                                                                                                                                                                                                                                            
    1435.0000     125.0000   -4975.0000  5.09909E+02  227.275  0.00000E+00  1.00000E+00  1.00001  6.3902  9.9995E-11  9.9999E-11  3.1922E-03  2.7565E-04  1.0050E-10  3.0521E-05  1.0028E-10  3.4377E-04  3.4187E-04                                                                                                                                                                                                                                                                                                                                                                                                                                                                                                                                                                                                            
     125.0000     125.0000   -4725.0000  4.88453E+02  215.821  0.00000E+00  1.00000E+00  1.00001  6.5469  9.6408E-11  9.6409E-11  1.7560E-03  2.7608E-04  9.6471E-11  3.1897E-05  9.6444E-11  3.3578E-04  3.3562E-04                                                                                                                                                                                                                                                                                                                                                                                                                                                                                                                                                                                                            
     375.0000     125.0000   -4725.0000  4.88454E+02  215.413  0.00000E+00  1.00000E+00  1.00001  6.5526  9.5252E-11  9.5252E-11  1.7196E-03  2.7610E-04  9.5253E-11  3.1950E-05  9.5252E-11  3.3537E-04  3.3543E-04                                                                                                                                                                                                                                                                                                                                                                                                                                                                                                                                                                                                            
     625.0000     125.0000   -4725.0000  4.88455E+02  214.713  0.00000E+00  1.00000E+00  1.00001  6.5625  9.3509E-11  9.3509E-11  1.6591E-03  2.7609E-04  9.3459E-11  3.2037E-05  9.3481E-11  3.3477E-04  3.3502E-04                                                                                                                                                                                                                                                                                                                                                                                                                                                                                                                                                                                                            
     760.0000     125.0000   -4725.0000  4.88453E+02  214.680  0.00000E+00  1.00000E+00  1.00001  6.5630  9.3427E-11  9.3427E-11  1.6562E-03  2.7609E-04  9.3384E-11  3.2041E-05  9.3408E-11  3.3473E-04  3.3501E-04                                                                                                                                                                                                                                                                                                                                                                                                                                                                                                                                                                                                            
     780.0000     125.0000   -4725.0000  4.88453E+02  214.661  0.00000E+00  1.00000E+00  1.00001  6.5633  9.3393E-11  9.3392E-11  1.6546E-03  2.7609E-04  9.3527E-11  3.2043E-05  9.3552E-11  3.3472E-04  3.3500E-04                                                                                                                                                                                                                                                                                                                                                                                                                                                                                                                                                                                                            
     800.0000     125.0000   -4725.0000  4.88452E+02  215.199  0.00000E+00  1.00000E+00  1.00001  6.5556  9.4439E-11  9.4439E-11  1.7008E-03  2.7611E-04  9.4559E-11  3.1978E-05  9.4572E-11  3.3514E-04  3.3534E-04                                                                                                                                                                                                                                                                                                                                                                                                                                                                                                                                                                                                            
     935.0000     125.0000   -4725.0000  4.88449E+02  215.464  0.00000E+00  1.00000E+00  1.00001  6.5519  9.5089E-11  9.5089E-11  1.7241E-03  2.7610E-04  9.5219E-11  3.1944E-05  9.5215E-11  3.3541E-04  3.3546E-04                                                                                                                                                                                                                                                                                                                                                                                                                                                                                                                                                                                                            
    1185.0000     125.0000   -4725.0000  4.88443E+02  215.945  0.00000E+00  1.00000E+00  1.00001  6.5451  9.6527E-11  9.6528E-11  1.7672E-03  2.7608E-04  9.6694E-11  3.1881E-05  9.6659E-11  3.3589E-04  3.3569E-04                                                                                                                                                                                                                                                                                                                                                                                                                                                                                                                                                                                                            