Title="TOUGHREACT V3.30-OMP: Aqueous Total & Species Concentrations in mol/kg h2o, Surface & Exchanged Species in mol/kg h2o, Dry blocks in mol/L medium"                                                                                                                                                                                                                                                                                                                                                                                                                                                                                                                                                                                                                                                                       
Variables= "X(m)"   "Y(m)"   "Z(m)"   "P(bar)"     "T(C)"   "SatGas"   "SatLiq"     "aH2O"       "pH"        "t_na+"        "t_cl-"      "t_hco3-"       "t_ca+2"      "t_so4-2"       "t_mg+2"       "t_ba+2"       "t_al+3"     "t_h4sio4"                                                                                                                                                                                                                                                                                                                                                                                                                                                                                                                                                                                    
Zone T= "1.58443954E+03 yr" I=      9J=     10K=     23F=Point 
     125.0000     125.0000   -5425.0000  5.47762E+02  257.178  0.00000E+00  1.00000E+00  1.00001  6.0279  1.0005E-10  1.0002E-10  1.5196E-02  2.6313E-04  9.8236E-11  2.6571E-05  9.8994E-11  3.5331E-04  3.5865E-04                                                                                                                                                                                                                                                                                                                                                                                                                                                                                                                                                                                                            
     375.0000     125.0000   -5425.0000  5.47762E+02  257.179  0.00000E+00  1.00000E+00  1.00001  6.0279  1.0005E-10  1.0002E-10  1.5196E-02  2.6313E-04  9.8235E-11  2.6571E-05  9.8994E-11  3.5331E-04  3.5865E-04                                                                                                                                                                                                                                                                                                                                                                                                                                                                                                                                                                                                            
     625.0000     125.0000   -5425.0000  5.47762E+02  257.179  0.00000E+00  1.00000E+00  1.00001  6.0279  1.0005E-10  1.0002E-10  1.5196E-02  2.6313E-04  9.8235E-11  2.6571E-05  9.8993E-11  3.5332E-04  3.5865E-04                                                                                                                                                                                                                                                                                                                                                                                                                                                                                                                                                                                                            
     760.0000     125.0000   -5425.0000  5.47761E+02  257.179  0.00000E+00  1.00000E+00  1.00001  6.0279  1.0005E-10  1.0002E-10  1.5196E-02  2.6313E-04  9.8235E-11  2.6571E-05  9.8994E-11  3.5331E-04  3.5865E-04                                                                                                                                                                                                                                                                                                                                                                                                                                                                                                                                                                                                            
     780.0000     125.0000   -5425.0000  5.47761E+02  257.179  0.00000E+00  1.00000E+00  1.00001  6.0279  1.0005E-10  1.0002E-10  1.5196E-02  2.6313E-04  9.8235E-11  2.6571E-05  9.8994E-11  3.5331E-04  3.5865E-04                                                                                                                                                                                                                                                                                                                                                                                                                                                                                                                                                                                                            
     800.0000     125.0000   -5425.0000  5.47761E+02  257.179  0.00000E+00  1.00000E+00  1.00001  6.0279  1.0005E-10  1.0002E-10  1.5196E-02  2.6313E-04  9.8235E-11  2.6571E-05  9.8994E-11  3.5331E-04  3.5865E-04                                                                                                                                                                                                                                                                                                                                                                                                                                                                                                                                                                                                            
     935.0000     125.0000   -5425.0000  5.47759E+02  257.179  0.00000E+00  1.00000E+00  1.00001  6.0279  1.0005E-10  1.0002E-10  1.5196E-02  2.6313E-04  9.8235E-11  2.6571E-05  9.8994E-11  3.5331E-04  3.5865E-04                                                                                                                                                                                                                                                                                                                                                                                                                                                                                                                                                                                                            
    1185.0000     125.0000   -5425.0000  5.47757E+02  257.179  0.00000E+00  1.00000E+00  1.00001  6.0279  1.0005E-10  1.0002E-10  1.5196E-02  2.6313E-04  9.8236E-11  2.6571E-05  9.8995E-11  3.5331E-04  3.5865E-04                                                                                                                                                                                                                                                                                                                                                                                                                                                                                                                                                                                                            
    1435.0000     125.0000   -5425.0000  5.47755E+02  257.179  0.00000E+00  1.00000E+00  1.00001  6.0279  1.0005E-10  1.0003E-10  1.5196E-02  2.6313E-04  9.8238E-11  2.6571E-05  9.8996E-11  3.5332E-04  3.5865E-04                                                                                                                                                                                                                                                                                                                                                                                                                                                                                                                                                                                                            
     125.0000     125.0000   -5225.0000  5.31114E+02  238.176  0.00000E+00  1.00000E+00  1.00001  6.2506  1.0003E-10  1.0005E-10  5.6735E-03  2.7256E-04  1.0144E-10  2.9107E-05  1.0085E-10  3.5075E-04  3.4603E-04                                                                                                                                                                                                                                                                                                                                                                                                                                                                                                                                                                                                            
     375.0000     125.0000   -5225.0000  5.31114E+02  238.175  0.00000E+00  1.00000E+00  1.00001  6.2507  1.0003E-10  1.0004E-10  5.6733E-03  2.7256E-04  1.0144E-10  2.9107E-05  1.0085E-10  3.5075E-04  3.4602E-04                                                                                                                                                                                                                                                                                                                                                                                                                                                                                                                                                                                                            
     625.0000     125.0000   -5225.0000  5.31115E+02  238.176  0.00000E+00  1.00000E+00  1.00001  6.2507  1.0003E-10  1.0004E-10  5.6735E-03  2.7256E-04  1.0144E-10  2.9107E-05  1.0085E-10  3.5075E-04  3.4602E-04                                                                                                                                                                                                                                                                                                                                                                                                                                                                                                                                                                                                            
     760.0000     125.0000   -5225.0000  5.31114E+02  238.176  0.00000E+00  1.00000E+00  1.00001  6.2506  1.0003E-10  1.0004E-10  5.6736E-03  2.7256E-04  1.0144E-10  2.9107E-05  1.0085E-10  3.5075E-04  3.4602E-04                                                                                                                                                                                                                                                                                                                                                                                                                                                                                                                                                                                                            
     780.0000     125.0000   -5225.0000  5.31113E+02  238.176  0.00000E+00  1.00000E+00  1.00001  6.2506  1.0003E-10  1.0004E-10  5.6736E-03  2.7256E-04  1.0144E-10  2.9107E-05  1.0085E-10  3.5075E-04  3.4602E-04                                                                                                                                                                                                                                                                                                                                                                                                                                                                                                                                                                                                            
     800.0000     125.0000   -5225.0000  5.31113E+02  238.176  0.00000E+00  1.00000E+00  1.00001  6.2506  1.0003E-10  1.0004E-10  5.6737E-03  2.7256E-04  1.0144E-10  2.9107E-05  1.0085E-10  3.5075E-04  3.4602E-04                                                                                                                                                                                                                                                                                                                                                                                                                                                                                                                                                                                                            
     935.0000     125.0000   -5225.0000  5.31112E+02  238.177  0.00000E+00  1.00000E+00  1.00001  6.2506  1.0003E-10  1.0004E-10  5.6738E-03  2.7256E-04  1.0144E-10  2.9107E-05  1.0085E-10  3.5075E-04  3.4603E-04                                                                                                                                                                                                                                                                                                                                                                                                                                                                                                                                                                                                            
    1185.0000     125.0000   -5225.0000  5.31108E+02  238.180  0.00000E+00  1.00000E+00  1.00001  6.2506  1.0003E-10  1.0005E-10  5.6747E-03  2.7256E-04  1.0144E-10  2.9107E-05  1.0085E-10  3.5075E-04  3.4603E-04                                                                                                                                                                                                                                                                                                                                                                                                                                                                                                                                                                                                            
    1435.0000     125.0000   -5225.0000  5.31106E+02  238.183  0.00000E+00  1.00000E+00  1.00001  6.2506  1.0003E-10  1.0005E-10  5.6757E-03  2.7256E-04  1.0144E-10  2.9106E-05  1.0085E-10  3.5076E-04  3.4603E-04                                                                                                                                                                                                                                                                                                                                                                                                                                                                                                                                                                                                            
     125.0000     125.0000   -4975.0000  5.09913E+02  227.259  0.00000E+00  1.00000E+00  1.00001  6.3904  9.9978E-11  9.9983E-11  3.1896E-03  2.7562E-04  1.0055E-10  3.0520E-05  1.0031E-10  3.4390E-04  3.4174E-04                                                                                                                                                                                                                                                                                                                                                                                                                                                                                                                                                                                                            
     375.0000     125.0000   -4975.0000  5.09916E+02  227.253  0.00000E+00  1.00000E+00  1.00001  6.3905  9.9937E-11  9.9942E-11  3.1886E-03  2.7562E-04  1.0050E-10  3.0521E-05  1.0026E-10  3.4389E-04  3.4174E-04                                                                                                                                                                                                                                                                                                                                                                                                                                                                                                                                                                                                            
     625.0000     125.0000   -4975.0000  5.09919E+02  227.246  0.00000E+00  1.00000E+00  1.00001  6.3906  9.9850E-11  9.9855E-11  3.1874E-03  2.7563E-04  1.0041E-10  3.0522E-05  1.0018E-10  3.4388E-04  3.4174E-04                                                                                                                                                                                                                                                                                                                                                                                                                                                                                                                                                                                                            
     760.0000     125.0000   -4975.0000  5.09917E+02  227.247  0.00000E+00  1.00000E+00  1.00001  6.3906  9.9850E-11  9.9855E-11  3.1875E-03  2.7563E-04  1.0041E-10  3.0522E-05  1.0018E-10  3.4388E-04  3.4174E-04                                                                                                                                                                                                                                                                                                                                                                                                                                                                                                                                                                                                            
     780.0000     125.0000   -4975.0000  5.09916E+02  227.247  0.00000E+00  1.00000E+00  1.00001  6.3906  9.9849E-11  9.9854E-11  3.1875E-03  2.7563E-04  1.0042E-10  3.0522E-05  1.0018E-10  3.4388E-04  3.4174E-04                                                                                                                                                                                                                                                                                                                                                                                                                                                                                                                                                                                                            
     800.0000     125.0000   -4975.0000  5.09916E+02  227.252  0.00000E+00  1.00000E+00  1.00001  6.3905  9.9897E-11  9.9902E-11  3.1885E-03  2.7562E-04  1.0047E-10  3.0521E-05  1.0023E-10  3.4389E-04  3.4175E-04                                                                                                                                                                                                                                                                                                                                                                                                                                                                                                                                                                                                            
     935.0000     125.0000   -4975.0000  5.09913E+02  227.256  0.00000E+00  1.00000E+00  1.00001  6.3904  9.9928E-11  9.9933E-11  3.1891E-03  2.7562E-04  1.0050E-10  3.0520E-05  1.0026E-10  3.4390E-04  3.4174E-04                                                                                                                                                                                                                                                                                                                                                                                                                                                                                                                                                                                                            
    1185.0000     125.0000   -4975.0000  5.09907E+02  227.267  0.00000E+00  1.00000E+00  1.00001  6.3903  9.9981E-11  9.9986E-11  3.1910E-03  2.7562E-04  1.0055E-10  3.0518E-05  1.0031E-10  3.4391E-04  3.4174E-04                                                                                                                                                                                                                                                                                                                                                                                                                                                                                                                                                                                                            
    1435.0000     125.0000   -4975.0000  5.09903E+02  227.279  0.00000E+00  1.00000E+00  1.00001  6.3901  9.9995E-11  1.0000E-10  3.1930E-03  2.7561E-04  1.0057E-10  3.0517E-05  1.0033E-10  3.4392E-04  3.4175E-04                                                                                                                                                                                                                                                                                                                                                                                                                                                                                                                                                                                                            
     125.0000     125.0000   -4725.0000  4.88443E+02  215.826  0.00000E+00  1.00000E+00  1.00001  6.5468  9.6418E-11  9.6419E-11  1.7564E-03  2.7607E-04  9.6503E-11  3.1895E-05  9.6466E-11  3.3583E-04  3.3558E-04                                                                                                                                                                                                                                                                                                                                                                                                                                                                                                                                                                                                            
     375.0000     125.0000   -4725.0000  4.88445E+02  215.418  0.00000E+00  1.00000E+00  1.00001  6.5526  9.5261E-11  9.5261E-11  1.7200E-03  2.7609E-04  9.5283E-11  3.1948E-05  9.5273E-11  3.3542E-04  3.3539E-04                                                                                                                                                                                                                                                                                                                                                                                                                                                                                                                                                                                                            
     625.0000     125.0000   -4725.0000  4.88446E+02  214.717  0.00000E+00  1.00000E+00  1.00001  6.5625  9.3516E-11  9.3515E-11  1.6593E-03  2.7608E-04  9.3485E-11  3.2035E-05  9.3498E-11  3.3482E-04  3.3498E-04                                                                                                                                                                                                                                                                                                                                                                                                                                                                                                                                                                                                            
     760.0000     125.0000   -4725.0000  4.88445E+02  214.683  0.00000E+00  1.00000E+00  1.00001  6.5630  9.3433E-11  9.3433E-11  1.6565E-03  2.7608E-04  9.3409E-11  3.2039E-05  9.3425E-11  3.3478E-04  3.3497E-04                                                                                                                                                                                                                                                                                                                                                                                                                                                                                                                                                                                                            
     780.0000     125.0000   -4725.0000  4.88444E+02  214.664  0.00000E+00  1.00000E+00  1.00001  6.5632  9.3401E-11  9.3401E-11  1.6549E-03  2.7608E-04  9.3554E-11  3.2042E-05  9.3570E-11  3.3477E-04  3.3496E-04                                                                                                                                                                                                                                                                                                                                                                                                                                                                                                                                                                                                            
     800.0000     125.0000   -4725.0000  4.88444E+02  215.203  0.00000E+00  1.00000E+00  1.00001  6.5556  9.4443E-11  9.4443E-11  1.7011E-03  2.7610E-04  9.4583E-11  3.1976E-05  9.4587E-11  3.3519E-04  3.3530E-04                                                                                                                                                                                                                                                                                                                                                                                                                                                                                                                                                                                                            
     935.0000     125.0000   -4725.0000  4.88442E+02  215.469  0.00000E+00  1.00000E+00  1.00001  6.5518  9.5099E-11  9.5099E-11  1.7245E-03  2.7609E-04  9.5250E-11  3.1942E-05  9.5237E-11  3.3546E-04  3.3542E-04                                                                                                                                                                                                                                                                                                                                                                                                                                                                                                                                                                                                            
    1185.0000     125.0000   -4725.0000  4.88437E+02  215.951  0.00000E+00  1.00000E+00  1.00001  6.5451  9.6537E-11  9.6538E-11  1.7677E-03  2.7606E-04  9.6727E-11  3.1879E-05  9.6682E-11  3.3595E-04  3.3565E-04                                                                                                                                                                                                                                                                                                                                                                                                                                                                                                                                                                                                            