Title="TOUGHREACT V3.30-OMP: Aqueous Total & Species Concentrations in mol/kg h2o, Surface & Exchanged Species in mol/kg h2o, Dry blocks in mol/L medium"                                                                                                                                                                                                                                                                                                                                                                                                                                                                                                                                                                                                                                                                       
Variables= "X(m)"   "Y(m)"   "Z(m)"   "P(bar)"     "T(C)"   "SatGas"   "SatLiq"     "aH2O"       "pH"        "t_na+"        "t_cl-"      "t_hco3-"       "t_ca+2"      "t_so4-2"       "t_mg+2"       "t_ba+2"       "t_al+3"     "t_h4sio4"                                                                                                                                                                                                                                                                                                                                                                                                                                                                                                                                                                                    
Zone T= "2.95656417E+03 yr" I=      9J=     10K=     23F=Point 
     125.0000     125.0000   -5425.0000  5.47575E+02  266.105  0.00000E+00  1.00000E+00  1.00001  5.9325  1.0007E-10  1.0000E-10  2.3810E-02  2.5690E-04  9.5066E-11  2.5310E-05  9.7154E-11  3.5244E-04  3.6690E-04                                                                                                                                                                                                                                                                                                                                                                                                                                                                                                                                                                                                            
     375.0000     125.0000   -5425.0000  5.47576E+02  266.106  0.00000E+00  1.00000E+00  1.00001  5.9325  1.0007E-10  1.0000E-10  2.3811E-02  2.5690E-04  9.5065E-11  2.5310E-05  9.7153E-11  3.5244E-04  3.6690E-04                                                                                                                                                                                                                                                                                                                                                                                                                                                                                                                                                                                                            
     625.0000     125.0000   -5425.0000  5.47576E+02  266.106  0.00000E+00  1.00000E+00  1.00001  5.9325  1.0007E-10  1.0000E-10  2.3812E-02  2.5690E-04  9.5064E-11  2.5310E-05  9.7152E-11  3.5244E-04  3.6690E-04                                                                                                                                                                                                                                                                                                                                                                                                                                                                                                                                                                                                            
     760.0000     125.0000   -5425.0000  5.47575E+02  266.106  0.00000E+00  1.00000E+00  1.00001  5.9325  1.0007E-10  1.0000E-10  2.3812E-02  2.5690E-04  9.5064E-11  2.5310E-05  9.7153E-11  3.5244E-04  3.6690E-04                                                                                                                                                                                                                                                                                                                                                                                                                                                                                                                                                                                                            
     780.0000     125.0000   -5425.0000  5.47575E+02  266.106  0.00000E+00  1.00000E+00  1.00001  5.9325  1.0007E-10  1.0000E-10  2.3811E-02  2.5690E-04  9.5064E-11  2.5310E-05  9.7153E-11  3.5244E-04  3.6690E-04                                                                                                                                                                                                                                                                                                                                                                                                                                                                                                                                                                                                            
     800.0000     125.0000   -5425.0000  5.47575E+02  266.106  0.00000E+00  1.00000E+00  1.00001  5.9325  1.0007E-10  1.0000E-10  2.3811E-02  2.5690E-04  9.5065E-11  2.5310E-05  9.7153E-11  3.5244E-04  3.6690E-04                                                                                                                                                                                                                                                                                                                                                                                                                                                                                                                                                                                                            
     935.0000     125.0000   -5425.0000  5.47574E+02  266.106  0.00000E+00  1.00000E+00  1.00001  5.9325  1.0007E-10  1.0000E-10  2.3811E-02  2.5690E-04  9.5065E-11  2.5310E-05  9.7154E-11  3.5244E-04  3.6690E-04                                                                                                                                                                                                                                                                                                                                                                                                                                                                                                                                                                                                            
    1185.0000     125.0000   -5425.0000  5.47571E+02  266.106  0.00000E+00  1.00000E+00  1.00001  5.9325  1.0008E-10  1.0000E-10  2.3811E-02  2.5690E-04  9.5067E-11  2.5310E-05  9.7155E-11  3.5244E-04  3.6690E-04                                                                                                                                                                                                                                                                                                                                                                                                                                                                                                                                                                                                            
    1435.0000     125.0000   -5425.0000  5.47569E+02  266.106  0.00000E+00  1.00000E+00  1.00001  5.9325  1.0008E-10  1.0000E-10  2.3811E-02  2.5690E-04  9.5069E-11  2.5310E-05  9.7157E-11  3.5244E-04  3.6690E-04                                                                                                                                                                                                                                                                                                                                                                                                                                                                                                                                                                                                            
     125.0000     125.0000   -5225.0000  5.31034E+02  238.228  0.00000E+00  1.00000E+00  1.00001  6.2504  1.0002E-10  1.0005E-10  5.6894E-03  2.7208E-04  1.0262E-10  2.9054E-05  1.0153E-10  3.5292E-04  3.4425E-04                                                                                                                                                                                                                                                                                                                                                                                                                                                                                                                                                                                                            
     375.0000     125.0000   -5225.0000  5.31035E+02  238.227  0.00000E+00  1.00000E+00  1.00001  6.2504  1.0002E-10  1.0005E-10  5.6889E-03  2.7208E-04  1.0262E-10  2.9055E-05  1.0153E-10  3.5292E-04  3.4425E-04                                                                                                                                                                                                                                                                                                                                                                                                                                                                                                                                                                                                            
     625.0000     125.0000   -5225.0000  5.31036E+02  238.226  0.00000E+00  1.00000E+00  1.00001  6.2504  1.0002E-10  1.0005E-10  5.6887E-03  2.7208E-04  1.0262E-10  2.9055E-05  1.0153E-10  3.5292E-04  3.4425E-04                                                                                                                                                                                                                                                                                                                                                                                                                                                                                                                                                                                                            
     760.0000     125.0000   -5225.0000  5.31035E+02  238.227  0.00000E+00  1.00000E+00  1.00001  6.2504  1.0002E-10  1.0005E-10  5.6889E-03  2.7208E-04  1.0262E-10  2.9055E-05  1.0153E-10  3.5292E-04  3.4425E-04                                                                                                                                                                                                                                                                                                                                                                                                                                                                                                                                                                                                            
     780.0000     125.0000   -5225.0000  5.31035E+02  238.227  0.00000E+00  1.00000E+00  1.00001  6.2504  1.0002E-10  1.0005E-10  5.6890E-03  2.7208E-04  1.0262E-10  2.9055E-05  1.0153E-10  3.5292E-04  3.4425E-04                                                                                                                                                                                                                                                                                                                                                                                                                                                                                                                                                                                                            
     800.0000     125.0000   -5225.0000  5.31035E+02  238.227  0.00000E+00  1.00000E+00  1.00001  6.2504  1.0002E-10  1.0005E-10  5.6890E-03  2.7208E-04  1.0262E-10  2.9055E-05  1.0153E-10  3.5292E-04  3.4425E-04                                                                                                                                                                                                                                                                                                                                                                                                                                                                                                                                                                                                            
     935.0000     125.0000   -5225.0000  5.31034E+02  238.228  0.00000E+00  1.00000E+00  1.00001  6.2504  1.0002E-10  1.0005E-10  5.6894E-03  2.7208E-04  1.0262E-10  2.9054E-05  1.0153E-10  3.5292E-04  3.4425E-04                                                                                                                                                                                                                                                                                                                                                                                                                                                                                                                                                                                                            
    1185.0000     125.0000   -5225.0000  5.31031E+02  238.233  0.00000E+00  1.00000E+00  1.00001  6.2503  1.0002E-10  1.0005E-10  5.6908E-03  2.7208E-04  1.0262E-10  2.9054E-05  1.0153E-10  3.5292E-04  3.4425E-04                                                                                                                                                                                                                                                                                                                                                                                                                                                                                                                                                                                                            
    1435.0000     125.0000   -5225.0000  5.31028E+02  238.237  0.00000E+00  1.00000E+00  1.00001  6.2503  1.0003E-10  1.0005E-10  5.6922E-03  2.7208E-04  1.0262E-10  2.9053E-05  1.0153E-10  3.5292E-04  3.4425E-04                                                                                                                                                                                                                                                                                                                                                                                                                                                                                                                                                                                                            
     125.0000     125.0000   -4975.0000  5.09834E+02  227.285  0.00000E+00  1.00000E+00  1.00001  6.3902  9.9979E-11  9.9988E-11  3.1941E-03  2.7539E-04  1.0104E-10  3.0493E-05  1.0059E-10  3.4492E-04  3.4091E-04                                                                                                                                                                                                                                                                                                                                                                                                                                                                                                                                                                                                            
     375.0000     125.0000   -4975.0000  5.09837E+02  227.278  0.00000E+00  1.00000E+00  1.00001  6.3903  9.9937E-11  9.9946E-11  3.1928E-03  2.7539E-04  1.0099E-10  3.0494E-05  1.0055E-10  3.4491E-04  3.4091E-04                                                                                                                                                                                                                                                                                                                                                                                                                                                                                                                                                                                                            
     625.0000     125.0000   -4975.0000  5.09840E+02  227.268  0.00000E+00  1.00000E+00  1.00001  6.3905  9.9850E-11  9.9859E-11  3.1913E-03  2.7540E-04  1.0090E-10  3.0495E-05  1.0046E-10  3.4489E-04  3.4091E-04                                                                                                                                                                                                                                                                                                                                                                                                                                                                                                                                                                                                            
     760.0000     125.0000   -4975.0000  5.09839E+02  227.270  0.00000E+00  1.00000E+00  1.00001  6.3904  9.9850E-11  9.9859E-11  3.1915E-03  2.7540E-04  1.0090E-10  3.0495E-05  1.0046E-10  3.4489E-04  3.4091E-04                                                                                                                                                                                                                                                                                                                                                                                                                                                                                                                                                                                                            
     780.0000     125.0000   -4975.0000  5.09838E+02  227.270  0.00000E+00  1.00000E+00  1.00001  6.3904  9.9850E-11  9.9859E-11  3.1915E-03  2.7540E-04  1.0091E-10  3.0495E-05  1.0046E-10  3.4489E-04  3.4091E-04                                                                                                                                                                                                                                                                                                                                                                                                                                                                                                                                                                                                            
     800.0000     125.0000   -4975.0000  5.09838E+02  227.276  0.00000E+00  1.00000E+00  1.00001  6.3904  9.9896E-11  9.9905E-11  3.1925E-03  2.7539E-04  1.0095E-10  3.0494E-05  1.0051E-10  3.4490E-04  3.4092E-04                                                                                                                                                                                                                                                                                                                                                                                                                                                                                                                                                                                                            
     935.0000     125.0000   -4975.0000  5.09835E+02  227.281  0.00000E+00  1.00000E+00  1.00001  6.3903  9.9928E-11  9.9937E-11  3.1933E-03  2.7539E-04  1.0099E-10  3.0493E-05  1.0054E-10  3.4491E-04  3.4091E-04                                                                                                                                                                                                                                                                                                                                                                                                                                                                                                                                                                                                            
    1185.0000     125.0000   -4975.0000  5.09830E+02  227.294  0.00000E+00  1.00000E+00  1.00001  6.3901  9.9981E-11  9.9990E-11  3.1956E-03  2.7539E-04  1.0105E-10  3.0491E-05  1.0060E-10  3.4493E-04  3.4091E-04                                                                                                                                                                                                                                                                                                                                                                                                                                                                                                                                                                                                            
    1435.0000     125.0000   -4975.0000  5.09827E+02  227.308  0.00000E+00  1.00000E+00  1.00001  6.3899  9.9996E-11  1.0000E-10  3.1979E-03  2.7538E-04  1.0107E-10  3.0490E-05  1.0061E-10  3.4494E-04  3.4091E-04                                                                                                                                                                                                                                                                                                                                                                                                                                                                                                                                                                                                            
     125.0000     125.0000   -4725.0000  4.88364E+02  215.858  0.00000E+00  1.00000E+00  1.00001  6.5464  9.6482E-11  9.6484E-11  1.7593E-03  2.7599E-04  9.6713E-11  3.1882E-05  9.6612E-11  3.3621E-04  3.3529E-04                                                                                                                                                                                                                                                                                                                                                                                                                                                                                                                                                                                                            
     375.0000     125.0000   -4725.0000  4.88366E+02  215.447  0.00000E+00  1.00000E+00  1.00001  6.5522  9.5322E-11  9.5323E-11  1.7226E-03  2.7601E-04  9.5481E-11  3.1936E-05  9.5411E-11  3.3578E-04  3.3512E-04                                                                                                                                                                                                                                                                                                                                                                                                                                                                                                                                                                                                            
     625.0000     125.0000   -4725.0000  4.88367E+02  214.740  0.00000E+00  1.00000E+00  1.00001  6.5622  9.3564E-11  9.3564E-11  1.6613E-03  2.7601E-04  9.3654E-11  3.2025E-05  9.3615E-11  3.3514E-04  3.3474E-04                                                                                                                                                                                                                                                                                                                                                                                                                                                                                                                                                                                                            
     760.0000     125.0000   -4725.0000  4.88366E+02  214.705  0.00000E+00  1.00000E+00  1.00001  6.5627  9.3477E-11  9.3477E-11  1.6584E-03  2.7601E-04  9.3577E-11  3.2029E-05  9.3540E-11  3.3510E-04  3.3472E-04                                                                                                                                                                                                                                                                                                                                                                                                                                                                                                                                                                                                            
     780.0000     125.0000   -4725.0000  4.88366E+02  214.686  0.00000E+00  1.00000E+00  1.00001  6.5630  9.3464E-11  9.3465E-11  1.6568E-03  2.7601E-04  9.3732E-11  3.2031E-05  9.3695E-11  3.3509E-04  3.3471E-04                                                                                                                                                                                                                                                                                                                                                                                                                                                                                                                                                                                                            
     800.0000     125.0000   -4725.0000  4.88366E+02  215.229  0.00000E+00  1.00000E+00  1.00001  6.5553  9.4477E-11  9.4477E-11  1.7034E-03  2.7603E-04  9.4748E-11  3.1965E-05  9.4695E-11  3.3554E-04  3.3504E-04                                                                                                                                                                                                                                                                                                                                                                                                                                                                                                                                                                                                            
     935.0000     125.0000   -4725.0000  4.88365E+02  215.498  0.00000E+00  1.00000E+00  1.00001  6.5515  9.5162E-11  9.5163E-11  1.7271E-03  2.7601E-04  9.5451E-11  3.1930E-05  9.5378E-11  3.3582E-04  3.3515E-04                                                                                                                                                                                                                                                                                                                                                                                                                                                                                                                                                                                                            
    1185.0000     125.0000   -4725.0000  4.88362E+02  215.983  0.00000E+00  1.00000E+00  1.00001  6.5447  9.6601E-11  9.6603E-11  1.7706E-03  2.7598E-04  9.6939E-11  3.1866E-05  9.6829E-11  3.3633E-04  3.3536E-04                                                                                                                                                                                                                                                                                                                                                                                                                                                                                                                                                                                                            