Title="TOUGHREACT V3.30-OMP: Aqueous Total & Species Concentrations in mol/kg h2o, Surface & Exchanged Species in mol/kg h2o, Dry blocks in mol/L medium"                                                                                                                                                                                                                                                                                                                                                                                                                                                                                                                                                                                                                                                                       
Variables= "X(m)"   "Y(m)"   "Z(m)"   "P(bar)"     "T(C)"   "SatGas"   "SatLiq"     "aH2O"       "pH"        "t_na+"        "t_cl-"      "t_hco3-"       "t_ca+2"      "t_so4-2"       "t_mg+2"       "t_ba+2"       "t_al+3"     "t_h4sio4"                                                                                                                                                                                                                                                                                                                                                                                                                                                                                                                                                                                    
Zone T= "7.28842187E+02 yr" I=      9J=     10K=     23F=Point 
     125.0000     125.0000   -5425.0000  5.47693E+02  251.617  0.00000E+00  1.00000E+00  1.00001  6.0903  1.0004E-10  1.0003E-10  1.1431E-02  2.6655E-04  9.9481E-11  2.7341E-05  9.9713E-11  3.5300E-04  3.5465E-04                                                                                                                                                                                                                                                                                                                                                                                                                                                                                                                                                                                                            
     375.0000     125.0000   -5425.0000  5.47693E+02  251.618  0.00000E+00  1.00000E+00  1.00001  6.0903  1.0004E-10  1.0003E-10  1.1432E-02  2.6655E-04  9.9481E-11  2.7341E-05  9.9712E-11  3.5300E-04  3.5465E-04                                                                                                                                                                                                                                                                                                                                                                                                                                                                                                                                                                                                            
     625.0000     125.0000   -5425.0000  5.47690E+02  251.618  0.00000E+00  1.00000E+00  1.00001  6.0902  1.0004E-10  1.0003E-10  1.1432E-02  2.6655E-04  9.9480E-11  2.7341E-05  9.9712E-11  3.5300E-04  3.5465E-04                                                                                                                                                                                                                                                                                                                                                                                                                                                                                                                                                                                                            
     760.0000     125.0000   -5425.0000  5.47687E+02  251.618  0.00000E+00  1.00000E+00  1.00001  6.0902  1.0004E-10  1.0003E-10  1.1432E-02  2.6655E-04  9.9480E-11  2.7341E-05  9.9712E-11  3.5300E-04  3.5465E-04                                                                                                                                                                                                                                                                                                                                                                                                                                                                                                                                                                                                            
     780.0000     125.0000   -5425.0000  5.47687E+02  251.618  0.00000E+00  1.00000E+00  1.00001  6.0902  1.0004E-10  1.0003E-10  1.1432E-02  2.6655E-04  9.9480E-11  2.7341E-05  9.9712E-11  3.5300E-04  3.5465E-04                                                                                                                                                                                                                                                                                                                                                                                                                                                                                                                                                                                                            
     800.0000     125.0000   -5425.0000  5.47686E+02  251.618  0.00000E+00  1.00000E+00  1.00001  6.0902  1.0004E-10  1.0003E-10  1.1432E-02  2.6655E-04  9.9480E-11  2.7341E-05  9.9712E-11  3.5300E-04  3.5465E-04                                                                                                                                                                                                                                                                                                                                                                                                                                                                                                                                                                                                            
     935.0000     125.0000   -5425.0000  5.47683E+02  251.618  0.00000E+00  1.00000E+00  1.00001  6.0903  1.0004E-10  1.0003E-10  1.1432E-02  2.6655E-04  9.9481E-11  2.7341E-05  9.9713E-11  3.5300E-04  3.5465E-04                                                                                                                                                                                                                                                                                                                                                                                                                                                                                                                                                                                                            
    1185.0000     125.0000   -5425.0000  5.47675E+02  251.618  0.00000E+00  1.00000E+00  1.00001  6.0903  1.0004E-10  1.0003E-10  1.1432E-02  2.6655E-04  9.9481E-11  2.7341E-05  9.9713E-11  3.5300E-04  3.5465E-04                                                                                                                                                                                                                                                                                                                                                                                                                                                                                                                                                                                                            
    1435.0000     125.0000   -5425.0000  5.47670E+02  251.618  0.00000E+00  1.00000E+00  1.00001  6.0903  1.0004E-10  1.0003E-10  1.1432E-02  2.6655E-04  9.9483E-11  2.7341E-05  9.9714E-11  3.5300E-04  3.5465E-04                                                                                                                                                                                                                                                                                                                                                                                                                                                                                                                                                                                                            
     125.0000     125.0000   -5225.0000  5.30981E+02  238.153  0.00000E+00  1.00000E+00  1.00001  6.2507  1.0003E-10  1.0004E-10  5.6666E-03  2.7287E-04  1.0070E-10  2.9140E-05  1.0042E-10  3.4939E-04  3.4716E-04                                                                                                                                                                                                                                                                                                                                                                                                                                                                                                                                                                                                            
     375.0000     125.0000   -5225.0000  5.30981E+02  238.153  0.00000E+00  1.00000E+00  1.00001  6.2507  1.0003E-10  1.0004E-10  5.6665E-03  2.7287E-04  1.0070E-10  2.9140E-05  1.0042E-10  3.4939E-04  3.4716E-04                                                                                                                                                                                                                                                                                                                                                                                                                                                                                                                                                                                                            
     625.0000     125.0000   -5225.0000  5.30979E+02  238.154  0.00000E+00  1.00000E+00  1.00001  6.2507  1.0003E-10  1.0004E-10  5.6668E-03  2.7287E-04  1.0069E-10  2.9140E-05  1.0042E-10  3.4939E-04  3.4716E-04                                                                                                                                                                                                                                                                                                                                                                                                                                                                                                                                                                                                            
     760.0000     125.0000   -5225.0000  5.30976E+02  238.154  0.00000E+00  1.00000E+00  1.00001  6.2507  1.0003E-10  1.0004E-10  5.6668E-03  2.7287E-04  1.0069E-10  2.9140E-05  1.0042E-10  3.4939E-04  3.4716E-04                                                                                                                                                                                                                                                                                                                                                                                                                                                                                                                                                                                                            
     780.0000     125.0000   -5225.0000  5.30975E+02  238.154  0.00000E+00  1.00000E+00  1.00001  6.2507  1.0003E-10  1.0004E-10  5.6668E-03  2.7287E-04  1.0069E-10  2.9140E-05  1.0042E-10  3.4939E-04  3.4716E-04                                                                                                                                                                                                                                                                                                                                                                                                                                                                                                                                                                                                            
     800.0000     125.0000   -5225.0000  5.30975E+02  238.154  0.00000E+00  1.00000E+00  1.00001  6.2507  1.0003E-10  1.0004E-10  5.6669E-03  2.7287E-04  1.0069E-10  2.9140E-05  1.0042E-10  3.4939E-04  3.4716E-04                                                                                                                                                                                                                                                                                                                                                                                                                                                                                                                                                                                                            
     935.0000     125.0000   -5225.0000  5.30971E+02  238.154  0.00000E+00  1.00000E+00  1.00001  6.2507  1.0003E-10  1.0004E-10  5.6669E-03  2.7287E-04  1.0070E-10  2.9140E-05  1.0042E-10  3.4939E-04  3.4716E-04                                                                                                                                                                                                                                                                                                                                                                                                                                                                                                                                                                                                            
    1185.0000     125.0000   -5225.0000  5.30961E+02  238.156  0.00000E+00  1.00000E+00  1.00001  6.2506  1.0003E-10  1.0004E-10  5.6674E-03  2.7287E-04  1.0070E-10  2.9140E-05  1.0042E-10  3.4939E-04  3.4716E-04                                                                                                                                                                                                                                                                                                                                                                                                                                                                                                                                                                                                            
    1435.0000     125.0000   -5225.0000  5.30954E+02  238.158  0.00000E+00  1.00000E+00  1.00001  6.2506  1.0003E-10  1.0004E-10  5.6681E-03  2.7286E-04  1.0070E-10  2.9139E-05  1.0042E-10  3.4939E-04  3.4716E-04                                                                                                                                                                                                                                                                                                                                                                                                                                                                                                                                                                                                            
     125.0000     125.0000   -4975.0000  5.09785E+02  227.242  0.00000E+00  1.00000E+00  1.00001  6.3905  9.9978E-11  9.9980E-11  3.1867E-03  2.7577E-04  1.0024E-10  3.0537E-05  1.0013E-10  3.4327E-04  3.4226E-04                                                                                                                                                                                                                                                                                                                                                                                                                                                                                                                                                                                                            
     375.0000     125.0000   -4975.0000  5.09787E+02  227.237  0.00000E+00  1.00000E+00  1.00001  6.3906  9.9937E-11  9.9939E-11  3.1859E-03  2.7577E-04  1.0020E-10  3.0537E-05  1.0009E-10  3.4327E-04  3.4226E-04                                                                                                                                                                                                                                                                                                                                                                                                                                                                                                                                                                                                            
     625.0000     125.0000   -4975.0000  5.09787E+02  227.232  0.00000E+00  1.00000E+00  1.00001  6.3906  9.9850E-11  9.9852E-11  3.1850E-03  2.7577E-04  1.0011E-10  3.0538E-05  1.0000E-10  3.4326E-04  3.4226E-04                                                                                                                                                                                                                                                                                                                                                                                                                                                                                                                                                                                                            
     760.0000     125.0000   -4975.0000  5.09782E+02  227.232  0.00000E+00  1.00000E+00  1.00001  6.3906  9.9850E-11  9.9852E-11  3.1850E-03  2.7577E-04  1.0011E-10  3.0538E-05  1.0000E-10  3.4326E-04  3.4226E-04                                                                                                                                                                                                                                                                                                                                                                                                                                                                                                                                                                                                            
     780.0000     125.0000   -4975.0000  5.09781E+02  227.232  0.00000E+00  1.00000E+00  1.00001  6.3906  9.9848E-11  9.9851E-11  3.1849E-03  2.7577E-04  1.0012E-10  3.0538E-05  1.0000E-10  3.4326E-04  3.4226E-04                                                                                                                                                                                                                                                                                                                                                                                                                                                                                                                                                                                                            
     800.0000     125.0000   -4975.0000  5.09780E+02  227.237  0.00000E+00  1.00000E+00  1.00001  6.3906  9.9898E-11  9.9900E-11  3.1859E-03  2.7577E-04  1.0016E-10  3.0537E-05  1.0005E-10  3.4326E-04  3.4226E-04                                                                                                                                                                                                                                                                                                                                                                                                                                                                                                                                                                                                            
     935.0000     125.0000   -4975.0000  5.09773E+02  227.240  0.00000E+00  1.00000E+00  1.00001  6.3905  9.9927E-11  9.9930E-11  3.1863E-03  2.7577E-04  1.0019E-10  3.0537E-05  1.0008E-10  3.4327E-04  3.4226E-04                                                                                                                                                                                                                                                                                                                                                                                                                                                                                                                                                                                                            
    1185.0000     125.0000   -4975.0000  5.09757E+02  227.249  0.00000E+00  1.00000E+00  1.00001  6.3904  9.9980E-11  9.9982E-11  3.1878E-03  2.7576E-04  1.0025E-10  3.0536E-05  1.0014E-10  3.4328E-04  3.4226E-04                                                                                                                                                                                                                                                                                                                                                                                                                                                                                                                                                                                                            
    1435.0000     125.0000   -4975.0000  5.09742E+02  227.258  0.00000E+00  1.00000E+00  1.00001  6.3903  9.9994E-11  9.9996E-11  3.1894E-03  2.7576E-04  1.0027E-10  3.0534E-05  1.0015E-10  3.4329E-04  3.4226E-04                                                                                                                                                                                                                                                                                                                                                                                                                                                                                                                                                                                                            
     125.0000     125.0000   -4725.0000  4.88319E+02  215.806  0.00000E+00  1.00000E+00  1.00001  6.5471  9.6381E-11  9.6381E-11  1.7546E-03  2.7612E-04  9.6376E-11  3.1903E-05  9.6378E-11  3.3560E-04  3.3575E-04                                                                                                                                                                                                                                                                                                                                                                                                                                                                                                                                                                                                            
     375.0000     125.0000   -4725.0000  4.88323E+02  215.400  0.00000E+00  1.00000E+00  1.00001  6.5528  9.5228E-11  9.5227E-11  1.7184E-03  2.7614E-04  9.5166E-11  3.1956E-05  9.5193E-11  3.3520E-04  3.3556E-04                                                                                                                                                                                                                                                                                                                                                                                                                                                                                                                                                                                                            
     625.0000     125.0000   -4725.0000  4.88324E+02  214.703  0.00000E+00  1.00000E+00  1.00001  6.5626  9.3494E-11  9.3494E-11  1.6582E-03  2.7612E-04  9.3389E-11  3.2042E-05  9.3435E-11  3.3462E-04  3.3514E-04                                                                                                                                                                                                                                                                                                                                                                                                                                                                                                                                                                                                            
     760.0000     125.0000   -4725.0000  4.88316E+02  214.673  0.00000E+00  1.00000E+00  1.00001  6.5631  9.3424E-11  9.3423E-11  1.6556E-03  2.7612E-04  9.3324E-11  3.2045E-05  9.3372E-11  3.3459E-04  3.3512E-04                                                                                                                                                                                                                                                                                                                                                                                                                                                                                                                                                                                                            
     780.0000     125.0000   -4725.0000  4.88314E+02  214.655  0.00000E+00  1.00000E+00  1.00001  6.5633  9.3383E-11  9.3382E-11  1.6541E-03  2.7612E-04  9.3467E-11  3.2048E-05  9.3516E-11  3.3457E-04  3.3511E-04                                                                                                                                                                                                                                                                                                                                                                                                                                                                                                                                                                                                            
     800.0000     125.0000   -4725.0000  4.88313E+02  215.189  0.00000E+00  1.00000E+00  1.00001  6.5558  9.4437E-11  9.4436E-11  1.6999E-03  2.7614E-04  9.4496E-11  3.1983E-05  9.4535E-11  3.3498E-04  3.3546E-04                                                                                                                                                                                                                                                                                                                                                                                                                                                                                                                                                                                                            
     935.0000     125.0000   -4725.0000  4.88302E+02  215.450  0.00000E+00  1.00000E+00  1.00001  6.5521  9.5059E-11  9.5059E-11  1.7228E-03  2.7614E-04  9.5126E-11  3.1949E-05  9.5150E-11  3.3524E-04  3.3559E-04                                                                                                                                                                                                                                                                                                                                                                                                                                                                                                                                                                                                            
    1185.0000     125.0000   -4725.0000  4.88276E+02  215.927  0.00000E+00  1.00000E+00  1.00001  6.5454  9.6490E-11  9.6490E-11  1.7656E-03  2.7611E-04  9.6589E-11  3.1887E-05  9.6583E-11  3.3571E-04  3.3582E-04                                                                                                                                                                                                                                                                                                                                                                                                                                                                                                                                                                                                            