Title="TOUGHREACT V3.30-OMP: Aqueous Total & Species Concentrations in mol/kg h2o, Surface & Exchanged Species in mol/kg h2o, Dry blocks in mol/L medium"                                                                                                                                                                                                                                                                                                                                                                                                                                                                                                                                                                                                                                                                       
Variables= "X(m)"   "Y(m)"   "Z(m)"   "P(bar)"     "T(C)"   "SatGas"   "SatLiq"     "aH2O"       "pH"        "t_na+"        "t_cl-"      "t_hco3-"       "t_ca+2"      "t_so4-2"       "t_mg+2"       "t_ba+2"       "t_al+3"     "t_h4sio4"                                                                                                                                                                                                                                                                                                                                                                                                                                                                                                                                                                                    
Zone T= "9.50663722E+02 yr" I=      9J=     10K=     23F=Point 
     125.0000     125.0000   -5425.0000  5.47788E+02  253.059  0.00000E+00  1.00000E+00  1.00001  6.0739  1.0004E-10  1.0003E-10  1.2311E-02  2.6570E-04  9.9200E-11  2.7142E-05  9.9551E-11  3.5314E-04  3.5563E-04                                                                                                                                                                                                                                                                                                                                                                                                                                                                                                                                                                                                            
     375.0000     125.0000   -5425.0000  5.47788E+02  253.060  0.00000E+00  1.00000E+00  1.00001  6.0739  1.0004E-10  1.0003E-10  1.2311E-02  2.6570E-04  9.9200E-11  2.7142E-05  9.9551E-11  3.5314E-04  3.5563E-04                                                                                                                                                                                                                                                                                                                                                                                                                                                                                                                                                                                                            
     625.0000     125.0000   -5425.0000  5.47787E+02  253.060  0.00000E+00  1.00000E+00  1.00001  6.0739  1.0004E-10  1.0003E-10  1.2312E-02  2.6570E-04  9.9200E-11  2.7142E-05  9.9550E-11  3.5314E-04  3.5563E-04                                                                                                                                                                                                                                                                                                                                                                                                                                                                                                                                                                                                            
     760.0000     125.0000   -5425.0000  5.47785E+02  253.060  0.00000E+00  1.00000E+00  1.00001  6.0739  1.0004E-10  1.0003E-10  1.2312E-02  2.6570E-04  9.9200E-11  2.7142E-05  9.9551E-11  3.5314E-04  3.5563E-04                                                                                                                                                                                                                                                                                                                                                                                                                                                                                                                                                                                                            
     780.0000     125.0000   -5425.0000  5.47785E+02  253.060  0.00000E+00  1.00000E+00  1.00001  6.0739  1.0004E-10  1.0003E-10  1.2312E-02  2.6570E-04  9.9200E-11  2.7142E-05  9.9551E-11  3.5314E-04  3.5563E-04                                                                                                                                                                                                                                                                                                                                                                                                                                                                                                                                                                                                            
     800.0000     125.0000   -5425.0000  5.47784E+02  253.060  0.00000E+00  1.00000E+00  1.00001  6.0739  1.0004E-10  1.0003E-10  1.2312E-02  2.6570E-04  9.9200E-11  2.7142E-05  9.9551E-11  3.5314E-04  3.5563E-04                                                                                                                                                                                                                                                                                                                                                                                                                                                                                                                                                                                                            
     935.0000     125.0000   -5425.0000  5.47782E+02  253.060  0.00000E+00  1.00000E+00  1.00001  6.0739  1.0004E-10  1.0003E-10  1.2312E-02  2.6570E-04  9.9200E-11  2.7142E-05  9.9551E-11  3.5314E-04  3.5563E-04                                                                                                                                                                                                                                                                                                                                                                                                                                                                                                                                                                                                            
    1185.0000     125.0000   -5425.0000  5.47777E+02  253.060  0.00000E+00  1.00000E+00  1.00001  6.0739  1.0004E-10  1.0003E-10  1.2311E-02  2.6570E-04  9.9201E-11  2.7142E-05  9.9552E-11  3.5314E-04  3.5563E-04                                                                                                                                                                                                                                                                                                                                                                                                                                                                                                                                                                                                            
    1435.0000     125.0000   -5425.0000  5.47774E+02  253.060  0.00000E+00  1.00000E+00  1.00001  6.0739  1.0004E-10  1.0003E-10  1.2312E-02  2.6570E-04  9.9202E-11  2.7142E-05  9.9553E-11  3.5314E-04  3.5563E-04                                                                                                                                                                                                                                                                                                                                                                                                                                                                                                                                                                                                            
     125.0000     125.0000   -5225.0000  5.31093E+02  238.158  0.00000E+00  1.00000E+00  1.00001  6.2507  1.0003E-10  1.0004E-10  5.6682E-03  2.7279E-04  1.0089E-10  2.9132E-05  1.0053E-10  3.4974E-04  3.4686E-04                                                                                                                                                                                                                                                                                                                                                                                                                                                                                                                                                                                                            
     375.0000     125.0000   -5225.0000  5.31093E+02  238.158  0.00000E+00  1.00000E+00  1.00001  6.2507  1.0003E-10  1.0004E-10  5.6682E-03  2.7279E-04  1.0089E-10  2.9132E-05  1.0053E-10  3.4974E-04  3.4686E-04                                                                                                                                                                                                                                                                                                                                                                                                                                                                                                                                                                                                            
     625.0000     125.0000   -5225.0000  5.31092E+02  238.159  0.00000E+00  1.00000E+00  1.00001  6.2507  1.0003E-10  1.0004E-10  5.6684E-03  2.7279E-04  1.0089E-10  2.9131E-05  1.0053E-10  3.4975E-04  3.4686E-04                                                                                                                                                                                                                                                                                                                                                                                                                                                                                                                                                                                                            
     760.0000     125.0000   -5225.0000  5.31090E+02  238.159  0.00000E+00  1.00000E+00  1.00001  6.2507  1.0003E-10  1.0004E-10  5.6685E-03  2.7279E-04  1.0089E-10  2.9131E-05  1.0053E-10  3.4975E-04  3.4686E-04                                                                                                                                                                                                                                                                                                                                                                                                                                                                                                                                                                                                            
     780.0000     125.0000   -5225.0000  5.31089E+02  238.159  0.00000E+00  1.00000E+00  1.00001  6.2507  1.0003E-10  1.0004E-10  5.6685E-03  2.7279E-04  1.0089E-10  2.9131E-05  1.0053E-10  3.4975E-04  3.4686E-04                                                                                                                                                                                                                                                                                                                                                                                                                                                                                                                                                                                                            
     800.0000     125.0000   -5225.0000  5.31089E+02  238.159  0.00000E+00  1.00000E+00  1.00001  6.2507  1.0003E-10  1.0004E-10  5.6685E-03  2.7279E-04  1.0089E-10  2.9131E-05  1.0053E-10  3.4975E-04  3.4686E-04                                                                                                                                                                                                                                                                                                                                                                                                                                                                                                                                                                                                            
     935.0000     125.0000   -5225.0000  5.31086E+02  238.160  0.00000E+00  1.00000E+00  1.00001  6.2507  1.0003E-10  1.0004E-10  5.6686E-03  2.7279E-04  1.0089E-10  2.9131E-05  1.0053E-10  3.4975E-04  3.4686E-04                                                                                                                                                                                                                                                                                                                                                                                                                                                                                                                                                                                                            
    1185.0000     125.0000   -5225.0000  5.31080E+02  238.162  0.00000E+00  1.00000E+00  1.00001  6.2506  1.0003E-10  1.0004E-10  5.6693E-03  2.7279E-04  1.0089E-10  2.9131E-05  1.0053E-10  3.4975E-04  3.4687E-04                                                                                                                                                                                                                                                                                                                                                                                                                                                                                                                                                                                                            
    1435.0000     125.0000   -5225.0000  5.31075E+02  238.164  0.00000E+00  1.00000E+00  1.00001  6.2506  1.0003E-10  1.0004E-10  5.6701E-03  2.7278E-04  1.0089E-10  2.9131E-05  1.0053E-10  3.4975E-04  3.4687E-04                                                                                                                                                                                                                                                                                                                                                                                                                                                                                                                                                                                                            
     125.0000     125.0000   -4975.0000  5.09894E+02  227.247  0.00000E+00  1.00000E+00  1.00001  6.3905  9.9978E-11  9.9981E-11  3.1875E-03  2.7573E-04  1.0032E-10  3.0532E-05  1.0018E-10  3.4344E-04  3.4213E-04                                                                                                                                                                                                                                                                                                                                                                                                                                                                                                                                                                                                            
     375.0000     125.0000   -4975.0000  5.09896E+02  227.242  0.00000E+00  1.00000E+00  1.00001  6.3905  9.9937E-11  9.9939E-11  3.1866E-03  2.7573E-04  1.0028E-10  3.0533E-05  1.0013E-10  3.4343E-04  3.4213E-04                                                                                                                                                                                                                                                                                                                                                                                                                                                                                                                                                                                                            
     625.0000     125.0000   -4975.0000  5.09898E+02  227.236  0.00000E+00  1.00000E+00  1.00001  6.3906  9.9850E-11  9.9853E-11  3.1856E-03  2.7573E-04  1.0019E-10  3.0534E-05  1.0005E-10  3.4342E-04  3.4213E-04                                                                                                                                                                                                                                                                                                                                                                                                                                                                                                                                                                                                            
     760.0000     125.0000   -4975.0000  5.09894E+02  227.236  0.00000E+00  1.00000E+00  1.00001  6.3906  9.9850E-11  9.9853E-11  3.1857E-03  2.7573E-04  1.0019E-10  3.0534E-05  1.0005E-10  3.4342E-04  3.4213E-04                                                                                                                                                                                                                                                                                                                                                                                                                                                                                                                                                                                                            
     780.0000     125.0000   -4975.0000  5.09893E+02  227.236  0.00000E+00  1.00000E+00  1.00001  6.3906  9.9849E-11  9.9851E-11  3.1857E-03  2.7573E-04  1.0019E-10  3.0534E-05  1.0005E-10  3.4342E-04  3.4213E-04                                                                                                                                                                                                                                                                                                                                                                                                                                                                                                                                                                                                            
     800.0000     125.0000   -4975.0000  5.09892E+02  227.241  0.00000E+00  1.00000E+00  1.00001  6.3905  9.9897E-11  9.9900E-11  3.1866E-03  2.7573E-04  1.0024E-10  3.0533E-05  1.0010E-10  3.4343E-04  3.4213E-04                                                                                                                                                                                                                                                                                                                                                                                                                                                                                                                                                                                                            
     935.0000     125.0000   -4975.0000  5.09888E+02  227.244  0.00000E+00  1.00000E+00  1.00001  6.3905  9.9928E-11  9.9930E-11  3.1871E-03  2.7573E-04  1.0027E-10  3.0533E-05  1.0013E-10  3.4343E-04  3.4213E-04                                                                                                                                                                                                                                                                                                                                                                                                                                                                                                                                                                                                            
    1185.0000     125.0000   -4975.0000  5.09876E+02  227.254  0.00000E+00  1.00000E+00  1.00001  6.3904  9.9980E-11  9.9983E-11  3.1887E-03  2.7573E-04  1.0033E-10  3.0531E-05  1.0018E-10  3.4344E-04  3.4213E-04                                                                                                                                                                                                                                                                                                                                                                                                                                                                                                                                                                                                            
    1435.0000     125.0000   -4975.0000  5.09867E+02  227.265  0.00000E+00  1.00000E+00  1.00001  6.3902  9.9994E-11  9.9997E-11  3.1905E-03  2.7572E-04  1.0034E-10  3.0530E-05  1.0020E-10  3.4346E-04  3.4213E-04                                                                                                                                                                                                                                                                                                                                                                                                                                                                                                                                                                                                            
     125.0000     125.0000   -4725.0000  4.88426E+02  215.812  0.00000E+00  1.00000E+00  1.00001  6.5470  9.6390E-11  9.6390E-11  1.7551E-03  2.7611E-04  9.6408E-11  3.1901E-05  9.6400E-11  3.3566E-04  3.3570E-04                                                                                                                                                                                                                                                                                                                                                                                                                                                                                                                                                                                                            
     375.0000     125.0000   -4725.0000  4.88428E+02  215.405  0.00000E+00  1.00000E+00  1.00001  6.5527  9.5235E-11  9.5235E-11  1.7188E-03  2.7613E-04  9.5195E-11  3.1954E-05  9.5212E-11  3.3526E-04  3.3551E-04                                                                                                                                                                                                                                                                                                                                                                                                                                                                                                                                                                                                            
     625.0000     125.0000   -4725.0000  4.88428E+02  214.707  0.00000E+00  1.00000E+00  1.00001  6.5626  9.3497E-11  9.3497E-11  1.6585E-03  2.7611E-04  9.3411E-11  3.2040E-05  9.3449E-11  3.3467E-04  3.3510E-04                                                                                                                                                                                                                                                                                                                                                                                                                                                                                                                                                                                                            
     760.0000     125.0000   -4725.0000  4.88424E+02  214.673  0.00000E+00  1.00000E+00  1.00001  6.5631  9.3418E-11  9.3418E-11  1.6557E-03  2.7611E-04  9.3338E-11  3.2044E-05  9.3378E-11  3.3463E-04  3.3508E-04                                                                                                                                                                                                                                                                                                                                                                                                                                                                                                                                                                                                            
     780.0000     125.0000   -4725.0000  4.88423E+02  214.654  0.00000E+00  1.00000E+00  1.00001  6.5633  9.3378E-11  9.3377E-11  1.6540E-03  2.7611E-04  9.3479E-11  3.2047E-05  9.3519E-11  3.3462E-04  3.3507E-04                                                                                                                                                                                                                                                                                                                                                                                                                                                                                                                                                                                                            
     800.0000     125.0000   -4725.0000  4.88422E+02  215.192  0.00000E+00  1.00000E+00  1.00001  6.5557  9.4435E-11  9.4434E-11  1.7002E-03  2.7613E-04  9.4515E-11  3.1981E-05  9.4545E-11  3.3504E-04  3.3542E-04                                                                                                                                                                                                                                                                                                                                                                                                                                                                                                                                                                                                            
     935.0000     125.0000   -4725.0000  4.88416E+02  215.455  0.00000E+00  1.00000E+00  1.00001  6.5520  9.5069E-11  9.5069E-11  1.7233E-03  2.7613E-04  9.5158E-11  3.1947E-05  9.5172E-11  3.3530E-04  3.3555E-04                                                                                                                                                                                                                                                                                                                                                                                                                                                                                                                                                                                                            
    1185.0000     125.0000   -4725.0000  4.88400E+02  215.934  0.00000E+00  1.00000E+00  1.00001  6.5453  9.6504E-11  9.6505E-11  1.7662E-03  2.7610E-04  9.6626E-11  3.1885E-05  9.6610E-11  3.3577E-04  3.3578E-04                                                                                                                                                                                                                                                                                                                                                                                                                                                                                                                                                                                                            