Title="TOUGHREACT V3.30-OMP: Aqueous Total & Species Concentrations in mol/kg h2o, Surface & Exchanged Species in mol/kg h2o, Dry blocks in mol/L medium"                                                                                                                                                                                                                                                                                                                                                                                                                                                                                                                                                                                                                                                                       
Variables= "X(m)"   "Y(m)"   "Z(m)"   "P(bar)"     "T(C)"   "SatGas"   "SatLiq"     "aH2O"       "pH"        "t_na+"        "t_cl-"      "t_hco3-"       "t_ca+2"      "t_so4-2"       "t_mg+2"       "t_ba+2"       "t_al+3"     "t_h4sio4"                                                                                                                                                                                                                                                                                                                                                                                                                                                                                                                                                                                    
Zone T= "1.16297862E+03 yr" I=      9J=     10K=     23F=Point 
     125.0000     125.0000   -5425.0000  5.47801E+02  254.439  0.00000E+00  1.00000E+00  1.00001  6.0583  1.0004E-10  1.0003E-10  1.3213E-02  2.6486E-04  9.8906E-11  2.6952E-05  9.9381E-11  3.5323E-04  3.5660E-04                                                                                                                                                                                                                                                                                                                                                                                                                                                                                                                                                                                                            
     375.0000     125.0000   -5425.0000  5.47801E+02  254.439  0.00000E+00  1.00000E+00  1.00001  6.0583  1.0004E-10  1.0003E-10  1.3214E-02  2.6486E-04  9.8905E-11  2.6952E-05  9.9381E-11  3.5323E-04  3.5660E-04                                                                                                                                                                                                                                                                                                                                                                                                                                                                                                                                                                                                            
     625.0000     125.0000   -5425.0000  5.47800E+02  254.440  0.00000E+00  1.00000E+00  1.00001  6.0583  1.0004E-10  1.0003E-10  1.3214E-02  2.6486E-04  9.8905E-11  2.6952E-05  9.9380E-11  3.5323E-04  3.5660E-04                                                                                                                                                                                                                                                                                                                                                                                                                                                                                                                                                                                                            
     760.0000     125.0000   -5425.0000  5.47799E+02  254.440  0.00000E+00  1.00000E+00  1.00001  6.0583  1.0004E-10  1.0003E-10  1.3214E-02  2.6486E-04  9.8905E-11  2.6952E-05  9.9381E-11  3.5323E-04  3.5660E-04                                                                                                                                                                                                                                                                                                                                                                                                                                                                                                                                                                                                            
     780.0000     125.0000   -5425.0000  5.47799E+02  254.440  0.00000E+00  1.00000E+00  1.00001  6.0583  1.0004E-10  1.0003E-10  1.3214E-02  2.6486E-04  9.8905E-11  2.6952E-05  9.9381E-11  3.5323E-04  3.5660E-04                                                                                                                                                                                                                                                                                                                                                                                                                                                                                                                                                                                                            
     800.0000     125.0000   -5425.0000  5.47798E+02  254.440  0.00000E+00  1.00000E+00  1.00001  6.0583  1.0004E-10  1.0003E-10  1.3214E-02  2.6486E-04  9.8905E-11  2.6952E-05  9.9381E-11  3.5323E-04  3.5660E-04                                                                                                                                                                                                                                                                                                                                                                                                                                                                                                                                                                                                            
     935.0000     125.0000   -5425.0000  5.47797E+02  254.440  0.00000E+00  1.00000E+00  1.00001  6.0583  1.0004E-10  1.0003E-10  1.3214E-02  2.6486E-04  9.8906E-11  2.6952E-05  9.9381E-11  3.5323E-04  3.5660E-04                                                                                                                                                                                                                                                                                                                                                                                                                                                                                                                                                                                                            
    1185.0000     125.0000   -5425.0000  5.47793E+02  254.439  0.00000E+00  1.00000E+00  1.00001  6.0583  1.0004E-10  1.0003E-10  1.3214E-02  2.6486E-04  9.8906E-11  2.6952E-05  9.9382E-11  3.5323E-04  3.5660E-04                                                                                                                                                                                                                                                                                                                                                                                                                                                                                                                                                                                                            
    1435.0000     125.0000   -5425.0000  5.47790E+02  254.440  0.00000E+00  1.00000E+00  1.00001  6.0583  1.0004E-10  1.0003E-10  1.3214E-02  2.6486E-04  9.8908E-11  2.6952E-05  9.9383E-11  3.5324E-04  3.5660E-04                                                                                                                                                                                                                                                                                                                                                                                                                                                                                                                                                                                                            
     125.0000     125.0000   -5225.0000  5.31121E+02  238.164  0.00000E+00  1.00000E+00  1.00001  6.2507  1.0003E-10  1.0004E-10  5.6699E-03  2.7271E-04  1.0108E-10  2.9123E-05  1.0064E-10  3.5008E-04  3.4658E-04                                                                                                                                                                                                                                                                                                                                                                                                                                                                                                                                                                                                            
     375.0000     125.0000   -5225.0000  5.31121E+02  238.164  0.00000E+00  1.00000E+00  1.00001  6.2507  1.0003E-10  1.0004E-10  5.6698E-03  2.7271E-04  1.0107E-10  2.9123E-05  1.0064E-10  3.5008E-04  3.4658E-04                                                                                                                                                                                                                                                                                                                                                                                                                                                                                                                                                                                                            
     625.0000     125.0000   -5225.0000  5.31121E+02  238.164  0.00000E+00  1.00000E+00  1.00001  6.2507  1.0003E-10  1.0004E-10  5.6700E-03  2.7271E-04  1.0107E-10  2.9123E-05  1.0064E-10  3.5008E-04  3.4658E-04                                                                                                                                                                                                                                                                                                                                                                                                                                                                                                                                                                                                            
     760.0000     125.0000   -5225.0000  5.31119E+02  238.165  0.00000E+00  1.00000E+00  1.00001  6.2507  1.0003E-10  1.0004E-10  5.6701E-03  2.7271E-04  1.0107E-10  2.9123E-05  1.0064E-10  3.5008E-04  3.4658E-04                                                                                                                                                                                                                                                                                                                                                                                                                                                                                                                                                                                                            
     780.0000     125.0000   -5225.0000  5.31119E+02  238.165  0.00000E+00  1.00000E+00  1.00001  6.2507  1.0003E-10  1.0004E-10  5.6701E-03  2.7271E-04  1.0107E-10  2.9123E-05  1.0064E-10  3.5008E-04  3.4658E-04                                                                                                                                                                                                                                                                                                                                                                                                                                                                                                                                                                                                            
     800.0000     125.0000   -5225.0000  5.31119E+02  238.165  0.00000E+00  1.00000E+00  1.00001  6.2507  1.0003E-10  1.0004E-10  5.6702E-03  2.7271E-04  1.0107E-10  2.9123E-05  1.0064E-10  3.5008E-04  3.4658E-04                                                                                                                                                                                                                                                                                                                                                                                                                                                                                                                                                                                                            
     935.0000     125.0000   -5225.0000  5.31117E+02  238.165  0.00000E+00  1.00000E+00  1.00001  6.2507  1.0003E-10  1.0004E-10  5.6703E-03  2.7271E-04  1.0107E-10  2.9123E-05  1.0064E-10  3.5008E-04  3.4658E-04                                                                                                                                                                                                                                                                                                                                                                                                                                                                                                                                                                                                            
    1185.0000     125.0000   -5225.0000  5.31112E+02  238.168  0.00000E+00  1.00000E+00  1.00001  6.2506  1.0003E-10  1.0004E-10  5.6710E-03  2.7271E-04  1.0108E-10  2.9123E-05  1.0064E-10  3.5008E-04  3.4658E-04                                                                                                                                                                                                                                                                                                                                                                                                                                                                                                                                                                                                            
    1435.0000     125.0000   -5225.0000  5.31108E+02  238.170  0.00000E+00  1.00000E+00  1.00001  6.2506  1.0003E-10  1.0004E-10  5.6719E-03  2.7271E-04  1.0108E-10  2.9123E-05  1.0064E-10  3.5009E-04  3.4659E-04                                                                                                                                                                                                                                                                                                                                                                                                                                                                                                                                                                                                            
     125.0000     125.0000   -4975.0000  5.09921E+02  227.251  0.00000E+00  1.00000E+00  1.00001  6.3904  9.9978E-11  9.9982E-11  3.1882E-03  2.7569E-04  1.0040E-10  3.0528E-05  1.0022E-10  3.4359E-04  3.4200E-04                                                                                                                                                                                                                                                                                                                                                                                                                                                                                                                                                                                                            
     375.0000     125.0000   -4975.0000  5.09924E+02  227.245  0.00000E+00  1.00000E+00  1.00001  6.3905  9.9937E-11  9.9940E-11  3.1873E-03  2.7569E-04  1.0035E-10  3.0529E-05  1.0018E-10  3.4358E-04  3.4200E-04                                                                                                                                                                                                                                                                                                                                                                                                                                                                                                                                                                                                            
     625.0000     125.0000   -4975.0000  5.09926E+02  227.239  0.00000E+00  1.00000E+00  1.00001  6.3906  9.9850E-11  9.9853E-11  3.1862E-03  2.7570E-04  1.0026E-10  3.0530E-05  1.0009E-10  3.4358E-04  3.4200E-04                                                                                                                                                                                                                                                                                                                                                                                                                                                                                                                                                                                                            
     760.0000     125.0000   -4975.0000  5.09923E+02  227.240  0.00000E+00  1.00000E+00  1.00001  6.3906  9.9850E-11  9.9854E-11  3.1863E-03  2.7570E-04  1.0027E-10  3.0530E-05  1.0009E-10  3.4358E-04  3.4200E-04                                                                                                                                                                                                                                                                                                                                                                                                                                                                                                                                                                                                            
     780.0000     125.0000   -4975.0000  5.09922E+02  227.240  0.00000E+00  1.00000E+00  1.00001  6.3906  9.9849E-11  9.9852E-11  3.1863E-03  2.7570E-04  1.0027E-10  3.0530E-05  1.0009E-10  3.4358E-04  3.4200E-04                                                                                                                                                                                                                                                                                                                                                                                                                                                                                                                                                                                                            
     800.0000     125.0000   -4975.0000  5.09922E+02  227.245  0.00000E+00  1.00000E+00  1.00001  6.3905  9.9897E-11  9.9901E-11  3.1872E-03  2.7570E-04  1.0032E-10  3.0529E-05  1.0014E-10  3.4358E-04  3.4200E-04                                                                                                                                                                                                                                                                                                                                                                                                                                                                                                                                                                                                            
     935.0000     125.0000   -4975.0000  5.09918E+02  227.248  0.00000E+00  1.00000E+00  1.00001  6.3905  9.9928E-11  9.9931E-11  3.1878E-03  2.7569E-04  1.0035E-10  3.0528E-05  1.0017E-10  3.4359E-04  3.4200E-04                                                                                                                                                                                                                                                                                                                                                                                                                                                                                                                                                                                                            
    1185.0000     125.0000   -4975.0000  5.09909E+02  227.259  0.00000E+00  1.00000E+00  1.00001  6.3903  9.9980E-11  9.9984E-11  3.1895E-03  2.7569E-04  1.0040E-10  3.0527E-05  1.0022E-10  3.4360E-04  3.4200E-04                                                                                                                                                                                                                                                                                                                                                                                                                                                                                                                                                                                                            
    1435.0000     125.0000   -4975.0000  5.09903E+02  227.270  0.00000E+00  1.00000E+00  1.00001  6.3902  9.9995E-11  9.9998E-11  3.1914E-03  2.7569E-04  1.0042E-10  3.0525E-05  1.0024E-10  3.4361E-04  3.4200E-04                                                                                                                                                                                                                                                                                                                                                                                                                                                                                                                                                                                                            
     125.0000     125.0000   -4725.0000  4.88452E+02  215.817  0.00000E+00  1.00000E+00  1.00001  6.5469  9.6399E-11  9.6399E-11  1.7555E-03  2.7610E-04  9.6440E-11  3.1899E-05  9.6422E-11  3.3572E-04  3.3566E-04                                                                                                                                                                                                                                                                                                                                                                                                                                                                                                                                                                                                            
     375.0000     125.0000   -4725.0000  4.88454E+02  215.409  0.00000E+00  1.00000E+00  1.00001  6.5527  9.5243E-11  9.5243E-11  1.7192E-03  2.7611E-04  9.5224E-11  3.1952E-05  9.5232E-11  3.3531E-04  3.3547E-04                                                                                                                                                                                                                                                                                                                                                                                                                                                                                                                                                                                                            
     625.0000     125.0000   -4725.0000  4.88454E+02  214.710  0.00000E+00  1.00000E+00  1.00001  6.5626  9.3503E-11  9.3502E-11  1.6588E-03  2.7610E-04  9.3435E-11  3.2038E-05  9.3465E-11  3.3472E-04  3.3506E-04                                                                                                                                                                                                                                                                                                                                                                                                                                                                                                                                                                                                            
     760.0000     125.0000   -4725.0000  4.88451E+02  214.677  0.00000E+00  1.00000E+00  1.00001  6.5630  9.3422E-11  9.3422E-11  1.6560E-03  2.7610E-04  9.3360E-11  3.2043E-05  9.3392E-11  3.3468E-04  3.3505E-04                                                                                                                                                                                                                                                                                                                                                                                                                                                                                                                                                                                                            
     780.0000     125.0000   -4725.0000  4.88451E+02  214.658  0.00000E+00  1.00000E+00  1.00001  6.5633  9.3384E-11  9.3384E-11  1.6543E-03  2.7610E-04  9.3502E-11  3.2045E-05  9.3535E-11  3.3467E-04  3.3503E-04                                                                                                                                                                                                                                                                                                                                                                                                                                                                                                                                                                                                            
     800.0000     125.0000   -4725.0000  4.88450E+02  215.195  0.00000E+00  1.00000E+00  1.00001  6.5557  9.4436E-11  9.4436E-11  1.7005E-03  2.7612E-04  9.4536E-11  3.1980E-05  9.4557E-11  3.3509E-04  3.3538E-04                                                                                                                                                                                                                                                                                                                                                                                                                                                                                                                                                                                                            
     935.0000     125.0000   -4725.0000  4.88446E+02  215.460  0.00000E+00  1.00000E+00  1.00001  6.5520  9.5079E-11  9.5079E-11  1.7237E-03  2.7612E-04  9.5189E-11  3.1946E-05  9.5194E-11  3.3535E-04  3.3550E-04                                                                                                                                                                                                                                                                                                                                                                                                                                                                                                                                                                                                            
    1185.0000     125.0000   -4725.0000  4.88436E+02  215.940  0.00000E+00  1.00000E+00  1.00001  6.5452  9.6516E-11  9.6517E-11  1.7667E-03  2.7609E-04  9.6661E-11  3.1883E-05  9.6635E-11  3.3583E-04  3.3573E-04                                                                                                                                                                                                                                                                                                                                                                                                                                                                                                                                                                                                            