Title="TOUGHREACT V3.30-OMP: Aqueous Total & Species Concentrations in mol/kg h2o, Surface & Exchanged Species in mol/kg h2o, Dry blocks in mol/L medium"                                                                                                                                                                                                                                                                                                                                                                                                                                                                                                                                                                                                                                                                       
Variables= "X(m)"   "Y(m)"   "Z(m)"   "P(bar)"     "T(C)"   "SatGas"   "SatLiq"     "aH2O"       "pH"        "t_na+"        "t_cl-"      "t_hco3-"       "t_ca+2"      "t_so4-2"       "t_mg+2"       "t_ba+2"       "t_al+3"     "t_h4sio4"                                                                                                                                                                                                                                                                                                                                                                                                                                                                                                                                                                                    
Zone T= "5.29202805E+02 yr" I=      9J=     10K=     23F=Point 
     125.0000     125.0000   -5425.0000  5.47383E+02  250.318  0.00000E+00  1.00000E+00  1.00001  6.1051  1.0003E-10  1.0003E-10  1.0691E-02  2.6729E-04  9.9711E-11  2.7519E-05  9.9845E-11  3.5284E-04  3.5380E-04                                                                                                                                                                                                                                                                                                                                                                                                                                                                                                                                                                                                            
     375.0000     125.0000   -5425.0000  5.47382E+02  250.319  0.00000E+00  1.00000E+00  1.00001  6.1051  1.0003E-10  1.0003E-10  1.0691E-02  2.6729E-04  9.9710E-11  2.7519E-05  9.9845E-11  3.5284E-04  3.5380E-04                                                                                                                                                                                                                                                                                                                                                                                                                                                                                                                                                                                                            
     625.0000     125.0000   -5425.0000  5.47377E+02  250.319  0.00000E+00  1.00000E+00  1.00001  6.1051  1.0003E-10  1.0003E-10  1.0691E-02  2.6729E-04  9.9710E-11  2.7519E-05  9.9845E-11  3.5284E-04  3.5380E-04                                                                                                                                                                                                                                                                                                                                                                                                                                                                                                                                                                                                            
     760.0000     125.0000   -5425.0000  5.47373E+02  250.319  0.00000E+00  1.00000E+00  1.00001  6.1051  1.0003E-10  1.0003E-10  1.0691E-02  2.6729E-04  9.9710E-11  2.7519E-05  9.9845E-11  3.5284E-04  3.5380E-04                                                                                                                                                                                                                                                                                                                                                                                                                                                                                                                                                                                                            
     780.0000     125.0000   -5425.0000  5.47372E+02  250.319  0.00000E+00  1.00000E+00  1.00001  6.1051  1.0003E-10  1.0003E-10  1.0691E-02  2.6729E-04  9.9710E-11  2.7519E-05  9.9845E-11  3.5284E-04  3.5380E-04                                                                                                                                                                                                                                                                                                                                                                                                                                                                                                                                                                                                            
     800.0000     125.0000   -5425.0000  5.47371E+02  250.319  0.00000E+00  1.00000E+00  1.00001  6.1051  1.0003E-10  1.0003E-10  1.0691E-02  2.6729E-04  9.9710E-11  2.7519E-05  9.9845E-11  3.5284E-04  3.5380E-04                                                                                                                                                                                                                                                                                                                                                                                                                                                                                                                                                                                                            
     935.0000     125.0000   -5425.0000  5.47366E+02  250.319  0.00000E+00  1.00000E+00  1.00001  6.1051  1.0003E-10  1.0003E-10  1.0691E-02  2.6729E-04  9.9710E-11  2.7519E-05  9.9845E-11  3.5284E-04  3.5380E-04                                                                                                                                                                                                                                                                                                                                                                                                                                                                                                                                                                                                            
    1185.0000     125.0000   -5425.0000  5.47355E+02  250.319  0.00000E+00  1.00000E+00  1.00001  6.1051  1.0003E-10  1.0003E-10  1.0691E-02  2.6729E-04  9.9711E-11  2.7519E-05  9.9845E-11  3.5284E-04  3.5380E-04                                                                                                                                                                                                                                                                                                                                                                                                                                                                                                                                                                                                            
    1435.0000     125.0000   -5425.0000  5.47347E+02  250.319  0.00000E+00  1.00000E+00  1.00001  6.1051  1.0003E-10  1.0003E-10  1.0691E-02  2.6729E-04  9.9712E-11  2.7519E-05  9.9846E-11  3.5284E-04  3.5380E-04                                                                                                                                                                                                                                                                                                                                                                                                                                                                                                                                                                                                            
     125.0000     125.0000   -5225.0000  5.30658E+02  238.147  0.00000E+00  1.00000E+00  1.00001  6.2507  1.0003E-10  1.0004E-10  5.6648E-03  2.7294E-04  1.0052E-10  2.9148E-05  1.0032E-10  3.4907E-04  3.4743E-04                                                                                                                                                                                                                                                                                                                                                                                                                                                                                                                                                                                                            
     375.0000     125.0000   -5225.0000  5.30658E+02  238.147  0.00000E+00  1.00000E+00  1.00001  6.2507  1.0003E-10  1.0004E-10  5.6648E-03  2.7294E-04  1.0052E-10  2.9148E-05  1.0032E-10  3.4907E-04  3.4743E-04                                                                                                                                                                                                                                                                                                                                                                                                                                                                                                                                                                                                            
     625.0000     125.0000   -5225.0000  5.30654E+02  238.148  0.00000E+00  1.00000E+00  1.00001  6.2507  1.0003E-10  1.0004E-10  5.6651E-03  2.7294E-04  1.0052E-10  2.9148E-05  1.0031E-10  3.4907E-04  3.4743E-04                                                                                                                                                                                                                                                                                                                                                                                                                                                                                                                                                                                                            
     760.0000     125.0000   -5225.0000  5.30648E+02  238.148  0.00000E+00  1.00000E+00  1.00001  6.2507  1.0003E-10  1.0004E-10  5.6651E-03  2.7294E-04  1.0052E-10  2.9148E-05  1.0031E-10  3.4907E-04  3.4743E-04                                                                                                                                                                                                                                                                                                                                                                                                                                                                                                                                                                                                            
     780.0000     125.0000   -5225.0000  5.30648E+02  238.148  0.00000E+00  1.00000E+00  1.00001  6.2507  1.0003E-10  1.0004E-10  5.6651E-03  2.7294E-04  1.0052E-10  2.9148E-05  1.0031E-10  3.4907E-04  3.4743E-04                                                                                                                                                                                                                                                                                                                                                                                                                                                                                                                                                                                                            
     800.0000     125.0000   -5225.0000  5.30647E+02  238.148  0.00000E+00  1.00000E+00  1.00001  6.2507  1.0003E-10  1.0004E-10  5.6651E-03  2.7294E-04  1.0052E-10  2.9148E-05  1.0031E-10  3.4907E-04  3.4743E-04                                                                                                                                                                                                                                                                                                                                                                                                                                                                                                                                                                                                            
     935.0000     125.0000   -5225.0000  5.30641E+02  238.148  0.00000E+00  1.00000E+00  1.00001  6.2507  1.0003E-10  1.0004E-10  5.6651E-03  2.7294E-04  1.0052E-10  2.9148E-05  1.0032E-10  3.4907E-04  3.4743E-04                                                                                                                                                                                                                                                                                                                                                                                                                                                                                                                                                                                                            
    1185.0000     125.0000   -5225.0000  5.30627E+02  238.149  0.00000E+00  1.00000E+00  1.00001  6.2507  1.0003E-10  1.0004E-10  5.6655E-03  2.7294E-04  1.0052E-10  2.9148E-05  1.0032E-10  3.4907E-04  3.4743E-04                                                                                                                                                                                                                                                                                                                                                                                                                                                                                                                                                                                                            
    1435.0000     125.0000   -5225.0000  5.30617E+02  238.151  0.00000E+00  1.00000E+00  1.00001  6.2506  1.0003E-10  1.0004E-10  5.6660E-03  2.7294E-04  1.0052E-10  2.9147E-05  1.0032E-10  3.4907E-04  3.4743E-04                                                                                                                                                                                                                                                                                                                                                                                                                                                                                                                                                                                                            
     125.0000     125.0000   -4975.0000  5.09468E+02  227.237  0.00000E+00  1.00000E+00  1.00001  6.3905  9.9978E-11  9.9979E-11  3.1859E-03  2.7580E-04  1.0017E-10  3.0541E-05  1.0009E-10  3.4313E-04  3.4238E-04                                                                                                                                                                                                                                                                                                                                                                                                                                                                                                                                                                                                            
     375.0000     125.0000   -4975.0000  5.09471E+02  227.233  0.00000E+00  1.00000E+00  1.00001  6.3906  9.9937E-11  9.9938E-11  3.1851E-03  2.7580E-04  1.0013E-10  3.0541E-05  1.0005E-10  3.4312E-04  3.4238E-04                                                                                                                                                                                                                                                                                                                                                                                                                                                                                                                                                                                                            
     625.0000     125.0000   -4975.0000  5.09469E+02  227.228  0.00000E+00  1.00000E+00  1.00001  6.3907  9.9850E-11  9.9852E-11  3.1842E-03  2.7581E-04  1.0004E-10  3.0542E-05  9.9960E-11  3.4311E-04  3.4238E-04                                                                                                                                                                                                                                                                                                                                                                                                                                                                                                                                                                                                            
     760.0000     125.0000   -4975.0000  5.09461E+02  227.227  0.00000E+00  1.00000E+00  1.00001  6.3907  9.9850E-11  9.9852E-11  3.1842E-03  2.7581E-04  1.0004E-10  3.0542E-05  9.9961E-11  3.4311E-04  3.4238E-04                                                                                                                                                                                                                                                                                                                                                                                                                                                                                                                                                                                                            
     780.0000     125.0000   -4975.0000  5.09459E+02  227.227  0.00000E+00  1.00000E+00  1.00001  6.3907  9.9848E-11  9.9850E-11  3.1841E-03  2.7581E-04  1.0005E-10  3.0542E-05  9.9964E-11  3.4311E-04  3.4238E-04                                                                                                                                                                                                                                                                                                                                                                                                                                                                                                                                                                                                            
     800.0000     125.0000   -4975.0000  5.09458E+02  227.232  0.00000E+00  1.00000E+00  1.00001  6.3906  9.9898E-11  9.9900E-11  3.1851E-03  2.7580E-04  1.0009E-10  3.0542E-05  1.0001E-10  3.4312E-04  3.4238E-04                                                                                                                                                                                                                                                                                                                                                                                                                                                                                                                                                                                                            
     935.0000     125.0000   -4975.0000  5.09448E+02  227.234  0.00000E+00  1.00000E+00  1.00001  6.3906  9.9927E-11  9.9929E-11  3.1854E-03  2.7580E-04  1.0012E-10  3.0541E-05  1.0004E-10  3.4312E-04  3.4238E-04                                                                                                                                                                                                                                                                                                                                                                                                                                                                                                                                                                                                            
    1185.0000     125.0000   -4975.0000  5.09424E+02  227.242  0.00000E+00  1.00000E+00  1.00001  6.3905  9.9980E-11  9.9982E-11  3.1867E-03  2.7580E-04  1.0018E-10  3.0540E-05  1.0009E-10  3.4313E-04  3.4238E-04                                                                                                                                                                                                                                                                                                                                                                                                                                                                                                                                                                                                            
    1435.0000     125.0000   -4975.0000  5.09402E+02  227.251  0.00000E+00  1.00000E+00  1.00001  6.3904  9.9993E-11  9.9995E-11  3.1881E-03  2.7580E-04  1.0019E-10  3.0539E-05  1.0011E-10  3.4314E-04  3.4238E-04                                                                                                                                                                                                                                                                                                                                                                                                                                                                                                                                                                                                            
     125.0000     125.0000   -4725.0000  4.88009E+02  215.801  0.00000E+00  1.00000E+00  1.00001  6.5471  9.6373E-11  9.6373E-11  1.7541E-03  2.7613E-04  9.6348E-11  3.1905E-05  9.6359E-11  3.3555E-04  3.3579E-04                                                                                                                                                                                                                                                                                                                                                                                                                                                                                                                                                                                                            
     375.0000     125.0000   -4725.0000  4.88019E+02  215.396  0.00000E+00  1.00000E+00  1.00001  6.5528  9.5225E-11  9.5224E-11  1.7180E-03  2.7615E-04  9.5144E-11  3.1957E-05  9.5179E-11  3.3515E-04  3.3559E-04                                                                                                                                                                                                                                                                                                                                                                                                                                                                                                                                                                                                            
     625.0000     125.0000   -4725.0000  4.88017E+02  214.708  0.00000E+00  1.00000E+00  1.00001  6.5626  9.3515E-11  9.3515E-11  1.6586E-03  2.7613E-04  9.3394E-11  3.2042E-05  9.3447E-11  3.3458E-04  3.3518E-04                                                                                                                                                                                                                                                                                                                                                                                                                                                                                                                                                                                                            
     760.0000     125.0000   -4725.0000  4.88006E+02  214.689  0.00000E+00  1.00000E+00  1.00001  6.5628  9.3473E-11  9.3472E-11  1.6569E-03  2.7613E-04  9.3358E-11  3.2044E-05  9.3413E-11  3.3456E-04  3.3517E-04                                                                                                                                                                                                                                                                                                                                                                                                                                                                                                                                                                                                            
     780.0000     125.0000   -4725.0000  4.88004E+02  214.673  0.00000E+00  1.00000E+00  1.00001  6.5631  9.3436E-11  9.3435E-11  1.6556E-03  2.7613E-04  9.3505E-11  3.2047E-05  9.3561E-11  3.3455E-04  3.3516E-04                                                                                                                                                                                                                                                                                                                                                                                                                                                                                                                                                                                                            
     800.0000     125.0000   -4725.0000  4.88002E+02  215.186  0.00000E+00  1.00000E+00  1.00001  6.5558  9.4446E-11  9.4445E-11  1.6996E-03  2.7615E-04  9.4486E-11  3.1984E-05  9.4533E-11  3.3494E-04  3.3550E-04                                                                                                                                                                                                                                                                                                                                                                                                                                                                                                                                                                                                            
     935.0000     125.0000   -4725.0000  4.87986E+02  215.444  0.00000E+00  1.00000E+00  1.00001  6.5521  9.5052E-11  9.5052E-11  1.7223E-03  2.7615E-04  9.5099E-11  3.1951E-05  9.5132E-11  3.3519E-04  3.3563E-04                                                                                                                                                                                                                                                                                                                                                                                                                                                                                                                                                                                                            
    1185.0000     125.0000   -4725.0000  4.87943E+02  215.920  0.00000E+00  1.00000E+00  1.00001  6.5455  9.6477E-11  9.6477E-11  1.7648E-03  2.7613E-04  9.6554E-11  3.1889E-05  9.6558E-11  3.3565E-04  3.3586E-04                                                                                                                                                                                                                                                                                                                                                                                                                                                                                                                                                                                                            