Title="TOUGHREACT V3.30-OMP: Aqueous Total & Species Concentrations in mol/kg h2o, Surface & Exchanged Species in mol/kg h2o, Dry blocks in mol/L medium"                                                                                                                                                                                                                                                                                                                                                                                                                                                                                                                                                                                                                                                                       
Variables= "X(m)"   "Y(m)"   "Z(m)"   "P(bar)"     "T(C)"   "SatGas"   "SatLiq"     "aH2O"       "pH"        "t_na+"        "t_cl-"      "t_hco3-"       "t_ca+2"      "t_so4-2"       "t_mg+2"       "t_ba+2"       "t_al+3"     "t_h4sio4"                                                                                                                                                                                                                                                                                                                                                                                                                                                                                                                                                                                    
Zone T= "1.47986653E+03 yr" I=      9J=     10K=     23F=Point 
     125.0000     125.0000   -5425.0000  5.47775E+02  256.499  0.00000E+00  1.00000E+00  1.00001  6.0354  1.0005E-10  1.0002E-10  1.4679E-02  2.6357E-04  9.8413E-11  2.6666E-05  9.9097E-11  3.5331E-04  3.5812E-04                                                                                                                                                                                                                                                                                                                                                                                                                                                                                                                                                                                                            
     375.0000     125.0000   -5425.0000  5.47775E+02  256.499  0.00000E+00  1.00000E+00  1.00001  6.0354  1.0005E-10  1.0002E-10  1.4679E-02  2.6357E-04  9.8413E-11  2.6666E-05  9.9096E-11  3.5331E-04  3.5812E-04                                                                                                                                                                                                                                                                                                                                                                                                                                                                                                                                                                                                            
     625.0000     125.0000   -5425.0000  5.47775E+02  256.500  0.00000E+00  1.00000E+00  1.00001  6.0354  1.0004E-10  1.0002E-10  1.4680E-02  2.6357E-04  9.8412E-11  2.6665E-05  9.9096E-11  3.5331E-04  3.5812E-04                                                                                                                                                                                                                                                                                                                                                                                                                                                                                                                                                                                                            
     760.0000     125.0000   -5425.0000  5.47774E+02  256.500  0.00000E+00  1.00000E+00  1.00001  6.0354  1.0004E-10  1.0002E-10  1.4679E-02  2.6357E-04  9.8413E-11  2.6665E-05  9.9096E-11  3.5331E-04  3.5812E-04                                                                                                                                                                                                                                                                                                                                                                                                                                                                                                                                                                                                            
     780.0000     125.0000   -5425.0000  5.47774E+02  256.499  0.00000E+00  1.00000E+00  1.00001  6.0354  1.0004E-10  1.0002E-10  1.4679E-02  2.6357E-04  9.8413E-11  2.6665E-05  9.9096E-11  3.5331E-04  3.5812E-04                                                                                                                                                                                                                                                                                                                                                                                                                                                                                                                                                                                                            
     800.0000     125.0000   -5425.0000  5.47773E+02  256.499  0.00000E+00  1.00000E+00  1.00001  6.0354  1.0005E-10  1.0002E-10  1.4679E-02  2.6357E-04  9.8413E-11  2.6665E-05  9.9096E-11  3.5331E-04  3.5812E-04                                                                                                                                                                                                                                                                                                                                                                                                                                                                                                                                                                                                            
     935.0000     125.0000   -5425.0000  5.47772E+02  256.499  0.00000E+00  1.00000E+00  1.00001  6.0354  1.0005E-10  1.0002E-10  1.4679E-02  2.6357E-04  9.8413E-11  2.6666E-05  9.9097E-11  3.5331E-04  3.5812E-04                                                                                                                                                                                                                                                                                                                                                                                                                                                                                                                                                                                                            
    1185.0000     125.0000   -5425.0000  5.47769E+02  256.499  0.00000E+00  1.00000E+00  1.00001  6.0354  1.0005E-10  1.0003E-10  1.4679E-02  2.6357E-04  9.8414E-11  2.6666E-05  9.9098E-11  3.5331E-04  3.5812E-04                                                                                                                                                                                                                                                                                                                                                                                                                                                                                                                                                                                                            
    1435.0000     125.0000   -5425.0000  5.47767E+02  256.499  0.00000E+00  1.00000E+00  1.00001  6.0354  1.0005E-10  1.0003E-10  1.4679E-02  2.6357E-04  9.8415E-11  2.6665E-05  9.9099E-11  3.5331E-04  3.5812E-04                                                                                                                                                                                                                                                                                                                                                                                                                                                                                                                                                                                                            
     125.0000     125.0000   -5225.0000  5.31119E+02  238.173  0.00000E+00  1.00000E+00  1.00001  6.2507  1.0003E-10  1.0004E-10  5.6726E-03  2.7260E-04  1.0135E-10  2.9111E-05  1.0080E-10  3.5059E-04  3.4616E-04                                                                                                                                                                                                                                                                                                                                                                                                                                                                                                                                                                                                            
     375.0000     125.0000   -5225.0000  5.31119E+02  238.172  0.00000E+00  1.00000E+00  1.00001  6.2507  1.0003E-10  1.0004E-10  5.6724E-03  2.7260E-04  1.0135E-10  2.9111E-05  1.0080E-10  3.5059E-04  3.4616E-04                                                                                                                                                                                                                                                                                                                                                                                                                                                                                                                                                                                                            
     625.0000     125.0000   -5225.0000  5.31120E+02  238.173  0.00000E+00  1.00000E+00  1.00001  6.2507  1.0003E-10  1.0004E-10  5.6726E-03  2.7260E-04  1.0135E-10  2.9111E-05  1.0079E-10  3.5059E-04  3.4616E-04                                                                                                                                                                                                                                                                                                                                                                                                                                                                                                                                                                                                            
     760.0000     125.0000   -5225.0000  5.31118E+02  238.173  0.00000E+00  1.00000E+00  1.00001  6.2507  1.0003E-10  1.0004E-10  5.6727E-03  2.7260E-04  1.0135E-10  2.9111E-05  1.0080E-10  3.5059E-04  3.4616E-04                                                                                                                                                                                                                                                                                                                                                                                                                                                                                                                                                                                                            
     780.0000     125.0000   -5225.0000  5.31118E+02  238.173  0.00000E+00  1.00000E+00  1.00001  6.2507  1.0003E-10  1.0004E-10  5.6727E-03  2.7260E-04  1.0135E-10  2.9111E-05  1.0080E-10  3.5059E-04  3.4616E-04                                                                                                                                                                                                                                                                                                                                                                                                                                                                                                                                                                                                            
     800.0000     125.0000   -5225.0000  5.31118E+02  238.173  0.00000E+00  1.00000E+00  1.00001  6.2506  1.0003E-10  1.0004E-10  5.6727E-03  2.7260E-04  1.0135E-10  2.9111E-05  1.0080E-10  3.5059E-04  3.4616E-04                                                                                                                                                                                                                                                                                                                                                                                                                                                                                                                                                                                                            
     935.0000     125.0000   -5225.0000  5.31116E+02  238.174  0.00000E+00  1.00000E+00  1.00001  6.2506  1.0003E-10  1.0004E-10  5.6729E-03  2.7260E-04  1.0135E-10  2.9111E-05  1.0080E-10  3.5059E-04  3.4616E-04                                                                                                                                                                                                                                                                                                                                                                                                                                                                                                                                                                                                            
    1185.0000     125.0000   -5225.0000  5.31113E+02  238.177  0.00000E+00  1.00000E+00  1.00001  6.2506  1.0003E-10  1.0005E-10  5.6738E-03  2.7260E-04  1.0135E-10  2.9111E-05  1.0080E-10  3.5059E-04  3.4617E-04                                                                                                                                                                                                                                                                                                                                                                                                                                                                                                                                                                                                            
    1435.0000     125.0000   -5225.0000  5.31110E+02  238.180  0.00000E+00  1.00000E+00  1.00001  6.2506  1.0003E-10  1.0005E-10  5.6747E-03  2.7259E-04  1.0135E-10  2.9110E-05  1.0080E-10  3.5059E-04  3.4617E-04                                                                                                                                                                                                                                                                                                                                                                                                                                                                                                                                                                                                            
     125.0000     125.0000   -4975.0000  5.09918E+02  227.257  0.00000E+00  1.00000E+00  1.00001  6.3904  9.9978E-11  9.9983E-11  3.1892E-03  2.7564E-04  1.0051E-10  3.0522E-05  1.0029E-10  3.4382E-04  3.4181E-04                                                                                                                                                                                                                                                                                                                                                                                                                                                                                                                                                                                                            
     375.0000     125.0000   -4975.0000  5.09921E+02  227.251  0.00000E+00  1.00000E+00  1.00001  6.3905  9.9937E-11  9.9941E-11  3.1882E-03  2.7564E-04  1.0047E-10  3.0523E-05  1.0024E-10  3.4382E-04  3.4181E-04                                                                                                                                                                                                                                                                                                                                                                                                                                                                                                                                                                                                            
     625.0000     125.0000   -4975.0000  5.09924E+02  227.244  0.00000E+00  1.00000E+00  1.00001  6.3906  9.9850E-11  9.9854E-11  3.1871E-03  2.7564E-04  1.0038E-10  3.0524E-05  1.0015E-10  3.4381E-04  3.4181E-04                                                                                                                                                                                                                                                                                                                                                                                                                                                                                                                                                                                                            
     760.0000     125.0000   -4975.0000  5.09922E+02  227.245  0.00000E+00  1.00000E+00  1.00001  6.3906  9.9850E-11  9.9854E-11  3.1872E-03  2.7564E-04  1.0038E-10  3.0524E-05  1.0015E-10  3.4381E-04  3.4181E-04                                                                                                                                                                                                                                                                                                                                                                                                                                                                                                                                                                                                            
     780.0000     125.0000   -4975.0000  5.09921E+02  227.245  0.00000E+00  1.00000E+00  1.00001  6.3906  9.9849E-11  9.9853E-11  3.1872E-03  2.7564E-04  1.0038E-10  3.0524E-05  1.0016E-10  3.4381E-04  3.4181E-04                                                                                                                                                                                                                                                                                                                                                                                                                                                                                                                                                                                                            
     800.0000     125.0000   -4975.0000  5.09921E+02  227.251  0.00000E+00  1.00000E+00  1.00001  6.3905  9.9897E-11  9.9901E-11  3.1882E-03  2.7564E-04  1.0043E-10  3.0523E-05  1.0021E-10  3.4381E-04  3.4181E-04                                                                                                                                                                                                                                                                                                                                                                                                                                                                                                                                                                                                            
     935.0000     125.0000   -4975.0000  5.09918E+02  227.254  0.00000E+00  1.00000E+00  1.00001  6.3904  9.9928E-11  9.9932E-11  3.1888E-03  2.7564E-04  1.0046E-10  3.0522E-05  1.0024E-10  3.4382E-04  3.4181E-04                                                                                                                                                                                                                                                                                                                                                                                                                                                                                                                                                                                                            
    1185.0000     125.0000   -4975.0000  5.09911E+02  227.265  0.00000E+00  1.00000E+00  1.00001  6.3903  9.9981E-11  9.9985E-11  3.1906E-03  2.7563E-04  1.0052E-10  3.0521E-05  1.0029E-10  3.4383E-04  3.4181E-04                                                                                                                                                                                                                                                                                                                                                                                                                                                                                                                                                                                                            
    1435.0000     125.0000   -4975.0000  5.09907E+02  227.277  0.00000E+00  1.00000E+00  1.00001  6.3901  9.9995E-11  9.9999E-11  3.1926E-03  2.7563E-04  1.0053E-10  3.0519E-05  1.0031E-10  3.4385E-04  3.4181E-04                                                                                                                                                                                                                                                                                                                                                                                                                                                                                                                                                                                                            
     125.0000     125.0000   -4725.0000  4.88449E+02  215.824  0.00000E+00  1.00000E+00  1.00001  6.5469  9.6413E-11  9.6414E-11  1.7562E-03  2.7608E-04  9.6487E-11  3.1896E-05  9.6455E-11  3.3581E-04  3.3560E-04                                                                                                                                                                                                                                                                                                                                                                                                                                                                                                                                                                                                            
     375.0000     125.0000   -4725.0000  4.88450E+02  215.415  0.00000E+00  1.00000E+00  1.00001  6.5526  9.5256E-11  9.5256E-11  1.7198E-03  2.7610E-04  9.5268E-11  3.1949E-05  9.5263E-11  3.3539E-04  3.3541E-04                                                                                                                                                                                                                                                                                                                                                                                                                                                                                                                                                                                                            
     625.0000     125.0000   -4725.0000  4.88451E+02  214.715  0.00000E+00  1.00000E+00  1.00001  6.5625  9.3512E-11  9.3512E-11  1.6592E-03  2.7608E-04  9.3472E-11  3.2036E-05  9.3490E-11  3.3479E-04  3.3500E-04                                                                                                                                                                                                                                                                                                                                                                                                                                                                                                                                                                                                            
     760.0000     125.0000   -4725.0000  4.88450E+02  214.682  0.00000E+00  1.00000E+00  1.00001  6.5630  9.3430E-11  9.3430E-11  1.6564E-03  2.7608E-04  9.3397E-11  3.2040E-05  9.3417E-11  3.3476E-04  3.3499E-04                                                                                                                                                                                                                                                                                                                                                                                                                                                                                                                                                                                                            
     780.0000     125.0000   -4725.0000  4.88449E+02  214.662  0.00000E+00  1.00000E+00  1.00001  6.5632  9.3397E-11  9.3397E-11  1.6548E-03  2.7608E-04  9.3540E-11  3.2043E-05  9.3561E-11  3.3474E-04  3.3498E-04                                                                                                                                                                                                                                                                                                                                                                                                                                                                                                                                                                                                            
     800.0000     125.0000   -4725.0000  4.88449E+02  215.201  0.00000E+00  1.00000E+00  1.00001  6.5556  9.4441E-11  9.4441E-11  1.7010E-03  2.7611E-04  9.4571E-11  3.1977E-05  9.4580E-11  3.3517E-04  3.3532E-04                                                                                                                                                                                                                                                                                                                                                                                                                                                                                                                                                                                                            
     935.0000     125.0000   -4725.0000  4.88446E+02  215.467  0.00000E+00  1.00000E+00  1.00001  6.5519  9.5094E-11  9.5094E-11  1.7243E-03  2.7610E-04  9.5235E-11  3.1943E-05  9.5226E-11  3.3544E-04  3.3544E-04                                                                                                                                                                                                                                                                                                                                                                                                                                                                                                                                                                                                            
    1185.0000     125.0000   -4725.0000  4.88441E+02  215.948  0.00000E+00  1.00000E+00  1.00001  6.5451  9.6532E-11  9.6533E-11  1.7674E-03  2.7607E-04  9.6711E-11  3.1880E-05  9.6670E-11  3.3592E-04  3.3567E-04                                                                                                                                                                                                                                                                                                                                                                                                                                                                                                                                                                                                            