Title="TOUGHREACT V3.30-OMP: Aqueous Total & Species Concentrations in mol/kg h2o, Surface & Exchanged Species in mol/kg h2o, Dry blocks in mol/L medium"                                                                                                                                                                                                                                                                                                                                                                                                                                                                                                                                                                                                                                                                       
Variables= "X(m)"   "Y(m)"   "Z(m)"   "P(bar)"     "T(C)"   "SatGas"   "SatLiq"     "aH2O"       "pH"        "t_na+"        "t_cl-"      "t_hco3-"       "t_ca+2"      "t_so4-2"       "t_mg+2"       "t_ba+2"       "t_al+3"     "t_h4sio4"                                                                                                                                                                                                                                                                                                                                                                                                                                                                                                                                                                                    
Zone T= "2.00590045E+03 yr" I=      9J=     10K=     23F=Point 
     125.0000     125.0000   -5425.0000  5.47703E+02  259.919  0.00000E+00  1.00000E+00  1.00001  5.9980  1.0005E-10  1.0002E-10  1.7460E-02  2.6130E-04  9.7438E-11  2.6187E-05  9.8533E-11  3.5324E-04  3.6089E-04                                                                                                                                                                                                                                                                                                                                                                                                                                                                                                                                                                                                            
     375.0000     125.0000   -5425.0000  5.47704E+02  259.919  0.00000E+00  1.00000E+00  1.00001  5.9980  1.0005E-10  1.0002E-10  1.7461E-02  2.6130E-04  9.7437E-11  2.6187E-05  9.8532E-11  3.5324E-04  3.6089E-04                                                                                                                                                                                                                                                                                                                                                                                                                                                                                                                                                                                                            
     625.0000     125.0000   -5425.0000  5.47704E+02  259.920  0.00000E+00  1.00000E+00  1.00001  5.9980  1.0005E-10  1.0002E-10  1.7461E-02  2.6130E-04  9.7437E-11  2.6186E-05  9.8532E-11  3.5324E-04  3.6089E-04                                                                                                                                                                                                                                                                                                                                                                                                                                                                                                                                                                                                            
     760.0000     125.0000   -5425.0000  5.47703E+02  259.920  0.00000E+00  1.00000E+00  1.00001  5.9980  1.0005E-10  1.0002E-10  1.7461E-02  2.6130E-04  9.7437E-11  2.6186E-05  9.8532E-11  3.5324E-04  3.6089E-04                                                                                                                                                                                                                                                                                                                                                                                                                                                                                                                                                                                                            
     780.0000     125.0000   -5425.0000  5.47703E+02  259.920  0.00000E+00  1.00000E+00  1.00001  5.9980  1.0005E-10  1.0002E-10  1.7461E-02  2.6130E-04  9.7437E-11  2.6186E-05  9.8532E-11  3.5324E-04  3.6089E-04                                                                                                                                                                                                                                                                                                                                                                                                                                                                                                                                                                                                            
     800.0000     125.0000   -5425.0000  5.47702E+02  259.920  0.00000E+00  1.00000E+00  1.00001  5.9980  1.0005E-10  1.0002E-10  1.7461E-02  2.6130E-04  9.7437E-11  2.6186E-05  9.8532E-11  3.5324E-04  3.6089E-04                                                                                                                                                                                                                                                                                                                                                                                                                                                                                                                                                                                                            
     935.0000     125.0000   -5425.0000  5.47701E+02  259.920  0.00000E+00  1.00000E+00  1.00001  5.9980  1.0005E-10  1.0002E-10  1.7461E-02  2.6130E-04  9.7437E-11  2.6186E-05  9.8533E-11  3.5324E-04  3.6089E-04                                                                                                                                                                                                                                                                                                                                                                                                                                                                                                                                                                                                            
    1185.0000     125.0000   -5425.0000  5.47699E+02  259.920  0.00000E+00  1.00000E+00  1.00001  5.9980  1.0006E-10  1.0002E-10  1.7461E-02  2.6130E-04  9.7439E-11  2.6187E-05  9.8534E-11  3.5324E-04  3.6089E-04                                                                                                                                                                                                                                                                                                                                                                                                                                                                                                                                                                                                            
    1435.0000     125.0000   -5425.0000  5.47697E+02  259.920  0.00000E+00  1.00000E+00  1.00001  5.9980  1.0006E-10  1.0002E-10  1.7461E-02  2.6130E-04  9.7440E-11  2.6186E-05  9.8535E-11  3.5324E-04  3.6089E-04                                                                                                                                                                                                                                                                                                                                                                                                                                                                                                                                                                                                            
     125.0000     125.0000   -5225.0000  5.31088E+02  238.190  0.00000E+00  1.00000E+00  1.00001  6.2506  1.0003E-10  1.0005E-10  5.6777E-03  2.7241E-04  1.0181E-10  2.9091E-05  1.0106E-10  3.5142E-04  3.4547E-04                                                                                                                                                                                                                                                                                                                                                                                                                                                                                                                                                                                                            
     375.0000     125.0000   -5225.0000  5.31089E+02  238.189  0.00000E+00  1.00000E+00  1.00001  6.2506  1.0003E-10  1.0005E-10  5.6774E-03  2.7241E-04  1.0181E-10  2.9091E-05  1.0106E-10  3.5142E-04  3.4547E-04                                                                                                                                                                                                                                                                                                                                                                                                                                                                                                                                                                                                            
     625.0000     125.0000   -5225.0000  5.31089E+02  238.189  0.00000E+00  1.00000E+00  1.00001  6.2506  1.0003E-10  1.0004E-10  5.6775E-03  2.7241E-04  1.0180E-10  2.9091E-05  1.0106E-10  3.5142E-04  3.4547E-04                                                                                                                                                                                                                                                                                                                                                                                                                                                                                                                                                                                                            
     760.0000     125.0000   -5225.0000  5.31088E+02  238.189  0.00000E+00  1.00000E+00  1.00001  6.2506  1.0003E-10  1.0004E-10  5.6777E-03  2.7241E-04  1.0180E-10  2.9091E-05  1.0106E-10  3.5142E-04  3.4547E-04                                                                                                                                                                                                                                                                                                                                                                                                                                                                                                                                                                                                            
     780.0000     125.0000   -5225.0000  5.31088E+02  238.189  0.00000E+00  1.00000E+00  1.00001  6.2506  1.0003E-10  1.0004E-10  5.6777E-03  2.7241E-04  1.0180E-10  2.9091E-05  1.0106E-10  3.5142E-04  3.4547E-04                                                                                                                                                                                                                                                                                                                                                                                                                                                                                                                                                                                                            
     800.0000     125.0000   -5225.0000  5.31088E+02  238.190  0.00000E+00  1.00000E+00  1.00001  6.2506  1.0003E-10  1.0005E-10  5.6777E-03  2.7241E-04  1.0180E-10  2.9091E-05  1.0106E-10  3.5142E-04  3.4547E-04                                                                                                                                                                                                                                                                                                                                                                                                                                                                                                                                                                                                            
     935.0000     125.0000   -5225.0000  5.31086E+02  238.190  0.00000E+00  1.00000E+00  1.00001  6.2506  1.0003E-10  1.0005E-10  5.6780E-03  2.7241E-04  1.0181E-10  2.9091E-05  1.0106E-10  3.5142E-04  3.4547E-04                                                                                                                                                                                                                                                                                                                                                                                                                                                                                                                                                                                                            
    1185.0000     125.0000   -5225.0000  5.31083E+02  238.194  0.00000E+00  1.00000E+00  1.00001  6.2506  1.0003E-10  1.0005E-10  5.6790E-03  2.7241E-04  1.0181E-10  2.9091E-05  1.0106E-10  3.5142E-04  3.4548E-04                                                                                                                                                                                                                                                                                                                                                                                                                                                                                                                                                                                                            
    1435.0000     125.0000   -5225.0000  5.31081E+02  238.197  0.00000E+00  1.00000E+00  1.00001  6.2505  1.0003E-10  1.0005E-10  5.6801E-03  2.7241E-04  1.0181E-10  2.9090E-05  1.0106E-10  3.5142E-04  3.4548E-04                                                                                                                                                                                                                                                                                                                                                                                                                                                                                                                                                                                                            
     125.0000     125.0000   -4975.0000  5.09887E+02  227.267  0.00000E+00  1.00000E+00  1.00001  6.3904  9.9978E-11  9.9984E-11  3.1909E-03  2.7555E-04  1.0070E-10  3.0511E-05  1.0039E-10  3.4421E-04  3.4149E-04                                                                                                                                                                                                                                                                                                                                                                                                                                                                                                                                                                                                            
     375.0000     125.0000   -4975.0000  5.09890E+02  227.260  0.00000E+00  1.00000E+00  1.00001  6.3904  9.9937E-11  9.9943E-11  3.1898E-03  2.7555E-04  1.0065E-10  3.0512E-05  1.0035E-10  3.4420E-04  3.4149E-04                                                                                                                                                                                                                                                                                                                                                                                                                                                                                                                                                                                                            
     625.0000     125.0000   -4975.0000  5.09893E+02  227.253  0.00000E+00  1.00000E+00  1.00001  6.3905  9.9850E-11  9.9856E-11  3.1886E-03  2.7556E-04  1.0056E-10  3.0514E-05  1.0026E-10  3.4419E-04  3.4149E-04                                                                                                                                                                                                                                                                                                                                                                                                                                                                                                                                                                                                            
     760.0000     125.0000   -4975.0000  5.09891E+02  227.254  0.00000E+00  1.00000E+00  1.00001  6.3905  9.9850E-11  9.9856E-11  3.1887E-03  2.7556E-04  1.0056E-10  3.0513E-05  1.0026E-10  3.4419E-04  3.4149E-04                                                                                                                                                                                                                                                                                                                                                                                                                                                                                                                                                                                                            
     780.0000     125.0000   -4975.0000  5.09891E+02  227.254  0.00000E+00  1.00000E+00  1.00001  6.3905  9.9849E-11  9.9855E-11  3.1887E-03  2.7556E-04  1.0057E-10  3.0513E-05  1.0027E-10  3.4419E-04  3.4149E-04                                                                                                                                                                                                                                                                                                                                                                                                                                                                                                                                                                                                            
     800.0000     125.0000   -4975.0000  5.09891E+02  227.259  0.00000E+00  1.00000E+00  1.00001  6.3904  9.9896E-11  9.9902E-11  3.1897E-03  2.7555E-04  1.0062E-10  3.0513E-05  1.0031E-10  3.4420E-04  3.4149E-04                                                                                                                                                                                                                                                                                                                                                                                                                                                                                                                                                                                                            
     935.0000     125.0000   -4975.0000  5.09888E+02  227.263  0.00000E+00  1.00000E+00  1.00001  6.3904  9.9928E-11  9.9934E-11  3.1904E-03  2.7555E-04  1.0065E-10  3.0512E-05  1.0034E-10  3.4421E-04  3.4149E-04                                                                                                                                                                                                                                                                                                                                                                                                                                                                                                                                                                                                            
    1185.0000     125.0000   -4975.0000  5.09883E+02  227.276  0.00000E+00  1.00000E+00  1.00001  6.3902  9.9981E-11  9.9987E-11  3.1924E-03  2.7555E-04  1.0070E-10  3.0510E-05  1.0040E-10  3.4422E-04  3.4149E-04                                                                                                                                                                                                                                                                                                                                                                                                                                                                                                                                                                                                            
    1435.0000     125.0000   -4975.0000  5.09879E+02  227.288  0.00000E+00  1.00000E+00  1.00001  6.3901  9.9995E-11  1.0000E-10  3.1945E-03  2.7554E-04  1.0072E-10  3.0508E-05  1.0042E-10  3.4424E-04  3.4149E-04                                                                                                                                                                                                                                                                                                                                                                                                                                                                                                                                                                                                            
     125.0000     125.0000   -4725.0000  4.88417E+02  215.836  0.00000E+00  1.00000E+00  1.00001  6.5467  9.6437E-11  9.6438E-11  1.7573E-03  2.7605E-04  9.6567E-11  3.1891E-05  9.6510E-11  3.3595E-04  3.3549E-04                                                                                                                                                                                                                                                                                                                                                                                                                                                                                                                                                                                                            
     375.0000     125.0000   -4725.0000  4.88419E+02  215.426  0.00000E+00  1.00000E+00  1.00001  6.5525  9.5279E-11  9.5280E-11  1.7208E-03  2.7607E-04  9.5343E-11  3.1945E-05  9.5315E-11  3.3553E-04  3.3531E-04                                                                                                                                                                                                                                                                                                                                                                                                                                                                                                                                                                                                            
     625.0000     125.0000   -4725.0000  4.88420E+02  214.724  0.00000E+00  1.00000E+00  1.00001  6.5624  9.3530E-11  9.3530E-11  1.6599E-03  2.7606E-04  9.3536E-11  3.2032E-05  9.3534E-11  3.3492E-04  3.3491E-04                                                                                                                                                                                                                                                                                                                                                                                                                                                                                                                                                                                                            
     760.0000     125.0000   -4725.0000  4.88419E+02  214.690  0.00000E+00  1.00000E+00  1.00001  6.5629  9.3446E-11  9.3446E-11  1.6571E-03  2.7606E-04  9.3460E-11  3.2036E-05  9.3460E-11  3.3488E-04  3.3490E-04                                                                                                                                                                                                                                                                                                                                                                                                                                                                                                                                                                                                            
     780.0000     125.0000   -4725.0000  4.88419E+02  214.671  0.00000E+00  1.00000E+00  1.00001  6.5631  9.3420E-11  9.3420E-11  1.6555E-03  2.7606E-04  9.3608E-11  3.2039E-05  9.3608E-11  3.3486E-04  3.3488E-04                                                                                                                                                                                                                                                                                                                                                                                                                                                                                                                                                                                                            
     800.0000     125.0000   -4725.0000  4.88419E+02  215.210  0.00000E+00  1.00000E+00  1.00001  6.5555  9.4453E-11  9.4453E-11  1.7018E-03  2.7608E-04  9.4633E-11  3.1973E-05  9.4620E-11  3.3530E-04  3.3522E-04                                                                                                                                                                                                                                                                                                                                                                                                                                                                                                                                                                                                            
     935.0000     125.0000   -4725.0000  4.88417E+02  215.478  0.00000E+00  1.00000E+00  1.00001  6.5517  9.5118E-11  9.5119E-11  1.7253E-03  2.7607E-04  9.5311E-11  3.1938E-05  9.5280E-11  3.3557E-04  3.3534E-04                                                                                                                                                                                                                                                                                                                                                                                                                                                                                                                                                                                                            
    1185.0000     125.0000   -4725.0000  4.88414E+02  215.960  0.00000E+00  1.00000E+00  1.00001  6.5450  9.6557E-11  9.6558E-11  1.7686E-03  2.7604E-04  9.6792E-11  3.1875E-05  9.6727E-11  3.3606E-04  3.3556E-04                                                                                                                                                                                                                                                                                                                                                                                                                                                                                                                                                                                                            