Title="TOUGHREACT V3.30-OMP: Aqueous Total & Species Concentrations in mol/kg h2o, Surface & Exchanged Species in mol/kg h2o, Dry blocks in mol/L medium"                                                                                                                                                                                                                                                                                                                                                                                                                                                                                                                                                                                                                                                                       
Variables= "X(m)"   "Y(m)"   "Z(m)"   "P(bar)"     "T(C)"   "SatGas"   "SatLiq"     "aH2O"       "pH"        "t_na+"        "t_cl-"      "t_hco3-"       "t_ca+2"      "t_so4-2"       "t_mg+2"       "t_ba+2"       "t_al+3"     "t_h4sio4"                                                                                                                                                                                                                                                                                                                                                                                                                                                                                                                                                                                    
Zone T= "2.74424928E+03 yr" I=      9J=     10K=     23F=Point 
     125.0000     125.0000   -5425.0000  5.47602E+02  264.723  0.00000E+00  1.00000E+00  1.00001  5.9469  1.0007E-10  1.0001E-10  2.2226E-02  2.5792E-04  9.5673E-11  2.5507E-05  9.7509E-11  3.5270E-04  3.6542E-04                                                                                                                                                                                                                                                                                                                                                                                                                                                                                                                                                                                                            
     375.0000     125.0000   -5425.0000  5.47603E+02  264.724  0.00000E+00  1.00000E+00  1.00001  5.9469  1.0007E-10  1.0001E-10  2.2226E-02  2.5792E-04  9.5672E-11  2.5507E-05  9.7508E-11  3.5270E-04  3.6542E-04                                                                                                                                                                                                                                                                                                                                                                                                                                                                                                                                                                                                            
     625.0000     125.0000   -5425.0000  5.47603E+02  264.724  0.00000E+00  1.00000E+00  1.00001  5.9469  1.0007E-10  1.0001E-10  2.2227E-02  2.5792E-04  9.5671E-11  2.5507E-05  9.7507E-11  3.5270E-04  3.6542E-04                                                                                                                                                                                                                                                                                                                                                                                                                                                                                                                                                                                                            
     760.0000     125.0000   -5425.0000  5.47602E+02  264.724  0.00000E+00  1.00000E+00  1.00001  5.9469  1.0007E-10  1.0001E-10  2.2227E-02  2.5792E-04  9.5672E-11  2.5507E-05  9.7507E-11  3.5270E-04  3.6542E-04                                                                                                                                                                                                                                                                                                                                                                                                                                                                                                                                                                                                            
     780.0000     125.0000   -5425.0000  5.47602E+02  264.724  0.00000E+00  1.00000E+00  1.00001  5.9469  1.0007E-10  1.0001E-10  2.2227E-02  2.5792E-04  9.5672E-11  2.5507E-05  9.7507E-11  3.5270E-04  3.6542E-04                                                                                                                                                                                                                                                                                                                                                                                                                                                                                                                                                                                                            
     800.0000     125.0000   -5425.0000  5.47602E+02  264.724  0.00000E+00  1.00000E+00  1.00001  5.9469  1.0007E-10  1.0001E-10  2.2226E-02  2.5792E-04  9.5672E-11  2.5507E-05  9.7507E-11  3.5270E-04  3.6542E-04                                                                                                                                                                                                                                                                                                                                                                                                                                                                                                                                                                                                            
     935.0000     125.0000   -5425.0000  5.47601E+02  264.724  0.00000E+00  1.00000E+00  1.00001  5.9469  1.0007E-10  1.0001E-10  2.2226E-02  2.5792E-04  9.5673E-11  2.5507E-05  9.7508E-11  3.5270E-04  3.6542E-04                                                                                                                                                                                                                                                                                                                                                                                                                                                                                                                                                                                                            
    1185.0000     125.0000   -5425.0000  5.47598E+02  264.724  0.00000E+00  1.00000E+00  1.00001  5.9469  1.0007E-10  1.0001E-10  2.2226E-02  2.5792E-04  9.5674E-11  2.5507E-05  9.7509E-11  3.5270E-04  3.6542E-04                                                                                                                                                                                                                                                                                                                                                                                                                                                                                                                                                                                                            
    1435.0000     125.0000   -5425.0000  5.47596E+02  264.724  0.00000E+00  1.00000E+00  1.00001  5.9469  1.0007E-10  1.0001E-10  2.2226E-02  2.5792E-04  9.5676E-11  2.5507E-05  9.7511E-11  3.5270E-04  3.6542E-04                                                                                                                                                                                                                                                                                                                                                                                                                                                                                                                                                                                                            
     125.0000     125.0000   -5225.0000  5.31044E+02  238.219  0.00000E+00  1.00000E+00  1.00001  6.2505  1.0003E-10  1.0005E-10  5.6865E-03  2.7215E-04  1.0244E-10  2.9063E-05  1.0142E-10  3.5258E-04  3.4452E-04                                                                                                                                                                                                                                                                                                                                                                                                                                                                                                                                                                                                            
     375.0000     125.0000   -5225.0000  5.31045E+02  238.217  0.00000E+00  1.00000E+00  1.00001  6.2505  1.0002E-10  1.0005E-10  5.6861E-03  2.7215E-04  1.0244E-10  2.9063E-05  1.0142E-10  3.5258E-04  3.4452E-04                                                                                                                                                                                                                                                                                                                                                                                                                                                                                                                                                                                                            
     625.0000     125.0000   -5225.0000  5.31046E+02  238.217  0.00000E+00  1.00000E+00  1.00001  6.2505  1.0002E-10  1.0005E-10  5.6859E-03  2.7215E-04  1.0244E-10  2.9063E-05  1.0142E-10  3.5259E-04  3.4452E-04                                                                                                                                                                                                                                                                                                                                                                                                                                                                                                                                                                                                            
     760.0000     125.0000   -5225.0000  5.31045E+02  238.217  0.00000E+00  1.00000E+00  1.00001  6.2505  1.0002E-10  1.0005E-10  5.6861E-03  2.7215E-04  1.0244E-10  2.9063E-05  1.0142E-10  3.5259E-04  3.4452E-04                                                                                                                                                                                                                                                                                                                                                                                                                                                                                                                                                                                                            
     780.0000     125.0000   -5225.0000  5.31045E+02  238.218  0.00000E+00  1.00000E+00  1.00001  6.2505  1.0002E-10  1.0005E-10  5.6862E-03  2.7215E-04  1.0244E-10  2.9063E-05  1.0142E-10  3.5259E-04  3.4452E-04                                                                                                                                                                                                                                                                                                                                                                                                                                                                                                                                                                                                            
     800.0000     125.0000   -5225.0000  5.31045E+02  238.218  0.00000E+00  1.00000E+00  1.00001  6.2505  1.0002E-10  1.0005E-10  5.6862E-03  2.7215E-04  1.0244E-10  2.9063E-05  1.0142E-10  3.5259E-04  3.4452E-04                                                                                                                                                                                                                                                                                                                                                                                                                                                                                                                                                                                                            
     935.0000     125.0000   -5225.0000  5.31044E+02  238.219  0.00000E+00  1.00000E+00  1.00001  6.2505  1.0002E-10  1.0005E-10  5.6866E-03  2.7215E-04  1.0244E-10  2.9063E-05  1.0142E-10  3.5259E-04  3.4452E-04                                                                                                                                                                                                                                                                                                                                                                                                                                                                                                                                                                                                            
    1185.0000     125.0000   -5225.0000  5.31041E+02  238.223  0.00000E+00  1.00000E+00  1.00001  6.2504  1.0003E-10  1.0005E-10  5.6879E-03  2.7215E-04  1.0244E-10  2.9062E-05  1.0142E-10  3.5259E-04  3.4452E-04                                                                                                                                                                                                                                                                                                                                                                                                                                                                                                                                                                                                            
    1435.0000     125.0000   -5225.0000  5.31038E+02  238.228  0.00000E+00  1.00000E+00  1.00001  6.2503  1.0003E-10  1.0005E-10  5.6892E-03  2.7215E-04  1.0244E-10  2.9062E-05  1.0143E-10  3.5259E-04  3.4452E-04                                                                                                                                                                                                                                                                                                                                                                                                                                                                                                                                                                                                            
     125.0000     125.0000   -4975.0000  5.09844E+02  227.281  0.00000E+00  1.00000E+00  1.00001  6.3903  9.9979E-11  9.9987E-11  3.1934E-03  2.7542E-04  1.0096E-10  3.0497E-05  1.0055E-10  3.4476E-04  3.4104E-04                                                                                                                                                                                                                                                                                                                                                                                                                                                                                                                                                                                                            
     375.0000     125.0000   -4975.0000  5.09847E+02  227.274  0.00000E+00  1.00000E+00  1.00001  6.3904  9.9937E-11  9.9946E-11  3.1921E-03  2.7543E-04  1.0092E-10  3.0498E-05  1.0050E-10  3.4475E-04  3.4104E-04                                                                                                                                                                                                                                                                                                                                                                                                                                                                                                                                                                                                            
     625.0000     125.0000   -4975.0000  5.09850E+02  227.265  0.00000E+00  1.00000E+00  1.00001  6.3905  9.9850E-11  9.9858E-11  3.1907E-03  2.7543E-04  1.0083E-10  3.0499E-05  1.0041E-10  3.4474E-04  3.4104E-04                                                                                                                                                                                                                                                                                                                                                                                                                                                                                                                                                                                                            
     760.0000     125.0000   -4975.0000  5.09849E+02  227.266  0.00000E+00  1.00000E+00  1.00001  6.3905  9.9850E-11  9.9858E-11  3.1909E-03  2.7543E-04  1.0083E-10  3.0499E-05  1.0041E-10  3.4474E-04  3.4104E-04                                                                                                                                                                                                                                                                                                                                                                                                                                                                                                                                                                                                            
     780.0000     125.0000   -4975.0000  5.09848E+02  227.266  0.00000E+00  1.00000E+00  1.00001  6.3905  9.9850E-11  9.9858E-11  3.1909E-03  2.7543E-04  1.0083E-10  3.0499E-05  1.0042E-10  3.4474E-04  3.4104E-04                                                                                                                                                                                                                                                                                                                                                                                                                                                                                                                                                                                                            
     800.0000     125.0000   -4975.0000  5.09848E+02  227.272  0.00000E+00  1.00000E+00  1.00001  6.3904  9.9896E-11  9.9904E-11  3.1919E-03  2.7543E-04  1.0088E-10  3.0498E-05  1.0046E-10  3.4474E-04  3.4104E-04                                                                                                                                                                                                                                                                                                                                                                                                                                                                                                                                                                                                            
     935.0000     125.0000   -4975.0000  5.09845E+02  227.277  0.00000E+00  1.00000E+00  1.00001  6.3903  9.9928E-11  9.9937E-11  3.1927E-03  2.7543E-04  1.0091E-10  3.0498E-05  1.0050E-10  3.4475E-04  3.4104E-04                                                                                                                                                                                                                                                                                                                                                                                                                                                                                                                                                                                                            
    1185.0000     125.0000   -4975.0000  5.09840E+02  227.290  0.00000E+00  1.00000E+00  1.00001  6.3902  9.9981E-11  9.9989E-11  3.1949E-03  2.7542E-04  1.0097E-10  3.0496E-05  1.0055E-10  3.4477E-04  3.4104E-04                                                                                                                                                                                                                                                                                                                                                                                                                                                                                                                                                                                                            
    1435.0000     125.0000   -4975.0000  5.09837E+02  227.303  0.00000E+00  1.00000E+00  1.00001  6.3900  9.9996E-11  1.0000E-10  3.1971E-03  2.7542E-04  1.0099E-10  3.0494E-05  1.0057E-10  3.4479E-04  3.4104E-04                                                                                                                                                                                                                                                                                                                                                                                                                                                                                                                                                                                                            
     125.0000     125.0000   -4725.0000  4.88374E+02  215.853  0.00000E+00  1.00000E+00  1.00001  6.5465  9.6472E-11  9.6473E-11  1.7589E-03  2.7600E-04  9.6680E-11  3.1884E-05  9.6589E-11  3.3615E-04  3.3534E-04                                                                                                                                                                                                                                                                                                                                                                                                                                                                                                                                                                                                            
     375.0000     125.0000   -4725.0000  4.88376E+02  215.442  0.00000E+00  1.00000E+00  1.00001  6.5523  9.5312E-11  9.5313E-11  1.7222E-03  2.7603E-04  9.5450E-11  3.1938E-05  9.5390E-11  3.3572E-04  3.3516E-04                                                                                                                                                                                                                                                                                                                                                                                                                                                                                                                                                                                                            
     625.0000     125.0000   -4725.0000  4.88377E+02  214.736  0.00000E+00  1.00000E+00  1.00001  6.5623  9.3556E-11  9.3557E-11  1.6610E-03  2.7602E-04  9.3628E-11  3.2026E-05  9.3596E-11  3.3509E-04  3.3478E-04                                                                                                                                                                                                                                                                                                                                                                                                                                                                                                                                                                                                            
     760.0000     125.0000   -4725.0000  4.88376E+02  214.702  0.00000E+00  1.00000E+00  1.00001  6.5627  9.3470E-11  9.3470E-11  1.6581E-03  2.7602E-04  9.3551E-11  3.2031E-05  9.3522E-11  3.3505E-04  3.3476E-04                                                                                                                                                                                                                                                                                                                                                                                                                                                                                                                                                                                                            
     780.0000     125.0000   -4725.0000  4.88376E+02  214.682  0.00000E+00  1.00000E+00  1.00001  6.5630  9.3455E-11  9.3455E-11  1.6565E-03  2.7602E-04  9.3704E-11  3.2033E-05  9.3676E-11  3.3504E-04  3.3475E-04                                                                                                                                                                                                                                                                                                                                                                                                                                                                                                                                                                                                            
     800.0000     125.0000   -4725.0000  4.88376E+02  215.224  0.00000E+00  1.00000E+00  1.00001  6.5553  9.4471E-11  9.4472E-11  1.7030E-03  2.7604E-04  9.4722E-11  3.1967E-05  9.4678E-11  3.3549E-04  3.3508E-04                                                                                                                                                                                                                                                                                                                                                                                                                                                                                                                                                                                                            
     935.0000     125.0000   -4725.0000  4.88374E+02  215.494  0.00000E+00  1.00000E+00  1.00001  6.5516  9.5152E-11  9.5153E-11  1.7267E-03  2.7603E-04  9.5419E-11  3.1932E-05  9.5356E-11  3.3577E-04  3.3520E-04                                                                                                                                                                                                                                                                                                                                                                                                                                                                                                                                                                                                            
    1185.0000     125.0000   -4725.0000  4.88372E+02  215.978  0.00000E+00  1.00000E+00  1.00001  6.5448  9.6591E-11  9.6593E-11  1.7702E-03  2.7600E-04  9.6906E-11  3.1868E-05  9.6806E-11  3.3627E-04  3.3541E-04                                                                                                                                                                                                                                                                                                                                                                                                                                                                                                                                                                                                            