Title="TOUGHREACT V3.30-OMP: Aqueous Total & Species Concentrations in mol/kg h2o, Surface & Exchanged Species in mol/kg h2o, Dry blocks in mol/L medium"                                                                                                                                                                                                                                                                                                                                                                                                                                                                                                                                                                                                                                                                       
Variables= "X(m)"   "Y(m)"   "Z(m)"   "P(bar)"     "T(C)"   "SatGas"   "SatLiq"     "aH2O"       "pH"        "t_na+"        "t_cl-"      "t_hco3-"       "t_ca+2"      "t_so4-2"       "t_mg+2"       "t_ba+2"       "t_al+3"     "t_h4sio4"                                                                                                                                                                                                                                                                                                                                                                                                                                                                                                                                                                                    
Zone T= "9.50663722E+01 yr" I=      9J=     10K=     23F=Point 
     125.0000     125.0000   -5425.0000  5.20059E+02  247.335  0.00000E+00  1.00000E+00  1.00001  6.1398  1.0003E-10  1.0003E-10  9.1605E-03  2.6888E-04  1.0013E-10  2.7924E-05  1.0009E-10  3.5231E-04  3.5198E-04                                                                                                                                                                                                                                                                                                                                                                                                                                                                                                                                                                                                            
     375.0000     125.0000   -5425.0000  5.20062E+02  247.335  0.00000E+00  1.00000E+00  1.00001  6.1398  1.0003E-10  1.0003E-10  9.1607E-03  2.6888E-04  1.0013E-10  2.7924E-05  1.0009E-10  3.5231E-04  3.5198E-04                                                                                                                                                                                                                                                                                                                                                                                                                                                                                                                                                                                                            
     625.0000     125.0000   -5425.0000  5.20059E+02  247.336  0.00000E+00  1.00000E+00  1.00001  6.1398  1.0003E-10  1.0003E-10  9.1609E-03  2.6888E-04  1.0013E-10  2.7924E-05  1.0009E-10  3.5231E-04  3.5198E-04                                                                                                                                                                                                                                                                                                                                                                                                                                                                                                                                                                                                            
     760.0000     125.0000   -5425.0000  5.20048E+02  247.336  0.00000E+00  1.00000E+00  1.00001  6.1398  1.0003E-10  1.0003E-10  9.1608E-03  2.6888E-04  1.0013E-10  2.7924E-05  1.0009E-10  3.5231E-04  3.5198E-04                                                                                                                                                                                                                                                                                                                                                                                                                                                                                                                                                                                                            
     780.0000     125.0000   -5425.0000  5.20047E+02  247.336  0.00000E+00  1.00000E+00  1.00001  6.1398  1.0003E-10  1.0003E-10  9.1608E-03  2.6888E-04  1.0013E-10  2.7924E-05  1.0009E-10  3.5231E-04  3.5198E-04                                                                                                                                                                                                                                                                                                                                                                                                                                                                                                                                                                                                            
     800.0000     125.0000   -5425.0000  5.20045E+02  247.336  0.00000E+00  1.00000E+00  1.00001  6.1398  1.0003E-10  1.0003E-10  9.1608E-03  2.6888E-04  1.0013E-10  2.7924E-05  1.0009E-10  3.5231E-04  3.5198E-04                                                                                                                                                                                                                                                                                                                                                                                                                                                                                                                                                                                                            
     935.0000     125.0000   -5425.0000  5.20033E+02  247.335  0.00000E+00  1.00000E+00  1.00001  6.1398  1.0003E-10  1.0003E-10  9.1606E-03  2.6888E-04  1.0013E-10  2.7924E-05  1.0009E-10  3.5231E-04  3.5198E-04                                                                                                                                                                                                                                                                                                                                                                                                                                                                                                                                                                                                            
    1185.0000     125.0000   -5425.0000  5.20003E+02  247.335  0.00000E+00  1.00000E+00  1.00001  6.1398  1.0003E-10  1.0003E-10  9.1604E-03  2.6888E-04  1.0013E-10  2.7924E-05  1.0009E-10  3.5231E-04  3.5198E-04                                                                                                                                                                                                                                                                                                                                                                                                                                                                                                                                                                                                            
    1435.0000     125.0000   -5425.0000  5.19982E+02  247.334  0.00000E+00  1.00000E+00  1.00001  6.1398  1.0003E-10  1.0003E-10  9.1602E-03  2.6888E-04  1.0013E-10  2.7924E-05  1.0009E-10  3.5231E-04  3.5198E-04                                                                                                                                                                                                                                                                                                                                                                                                                                                                                                                                                                                                            
     125.0000     125.0000   -5225.0000  5.03344E+02  238.016  0.00000E+00  1.00000E+00  1.00001  6.2522  1.0003E-10  1.0003E-10  5.6259E-03  2.7314E-04  1.0012E-10  2.9181E-05  1.0008E-10  3.4829E-04  3.4799E-04                                                                                                                                                                                                                                                                                                                                                                                                                                                                                                                                                                                                            
     375.0000     125.0000   -5225.0000  5.03353E+02  238.017  0.00000E+00  1.00000E+00  1.00001  6.2522  1.0003E-10  1.0003E-10  5.6260E-03  2.7314E-04  1.0012E-10  2.9181E-05  1.0008E-10  3.4829E-04  3.4799E-04                                                                                                                                                                                                                                                                                                                                                                                                                                                                                                                                                                                                            
     625.0000     125.0000   -5225.0000  5.03352E+02  238.018  0.00000E+00  1.00000E+00  1.00001  6.2522  1.0003E-10  1.0003E-10  5.6263E-03  2.7314E-04  1.0012E-10  2.9180E-05  1.0008E-10  3.4829E-04  3.4799E-04                                                                                                                                                                                                                                                                                                                                                                                                                                                                                                                                                                                                            
     760.0000     125.0000   -5225.0000  5.03341E+02  238.017  0.00000E+00  1.00000E+00  1.00001  6.2522  1.0003E-10  1.0003E-10  5.6262E-03  2.7314E-04  1.0012E-10  2.9181E-05  1.0008E-10  3.4829E-04  3.4799E-04                                                                                                                                                                                                                                                                                                                                                                                                                                                                                                                                                                                                            
     780.0000     125.0000   -5225.0000  5.03339E+02  238.017  0.00000E+00  1.00000E+00  1.00001  6.2522  1.0003E-10  1.0003E-10  5.6262E-03  2.7314E-04  1.0012E-10  2.9181E-05  1.0008E-10  3.4829E-04  3.4799E-04                                                                                                                                                                                                                                                                                                                                                                                                                                                                                                                                                                                                            
     800.0000     125.0000   -5225.0000  5.03337E+02  238.017  0.00000E+00  1.00000E+00  1.00001  6.2522  1.0003E-10  1.0003E-10  5.6261E-03  2.7314E-04  1.0012E-10  2.9181E-05  1.0008E-10  3.4829E-04  3.4799E-04                                                                                                                                                                                                                                                                                                                                                                                                                                                                                                                                                                                                            
     935.0000     125.0000   -5225.0000  5.03324E+02  238.017  0.00000E+00  1.00000E+00  1.00001  6.2522  1.0003E-10  1.0003E-10  5.6260E-03  2.7314E-04  1.0012E-10  2.9181E-05  1.0008E-10  3.4829E-04  3.4799E-04                                                                                                                                                                                                                                                                                                                                                                                                                                                                                                                                                                                                            
    1185.0000     125.0000   -5225.0000  5.03287E+02  238.016  0.00000E+00  1.00000E+00  1.00001  6.2522  1.0003E-10  1.0003E-10  5.6258E-03  2.7314E-04  1.0012E-10  2.9181E-05  1.0008E-10  3.4829E-04  3.4799E-04                                                                                                                                                                                                                                                                                                                                                                                                                                                                                                                                                                                                            
    1435.0000     125.0000   -5225.0000  5.03260E+02  238.016  0.00000E+00  1.00000E+00  1.00001  6.2522  1.0003E-10  1.0003E-10  5.6258E-03  2.7314E-04  1.0012E-10  2.9181E-05  1.0008E-10  3.4829E-04  3.4799E-04                                                                                                                                                                                                                                                                                                                                                                                                                                                                                                                                                                                                            
     125.0000     125.0000   -4975.0000  4.82234E+02  227.154  0.00000E+00  1.00000E+00  1.00001  6.3916  1.0002E-10  1.0002E-10  3.1719E-03  2.7588E-04  1.0006E-10  3.0558E-05  1.0004E-10  3.4275E-04  3.4261E-04                                                                                                                                                                                                                                                                                                                                                                                                                                                                                                                                                                                                            
     375.0000     125.0000   -4975.0000  4.82264E+02  227.154  0.00000E+00  1.00000E+00  1.00001  6.3916  1.0001E-10  1.0001E-10  3.1718E-03  2.7589E-04  1.0004E-10  3.0559E-05  1.0003E-10  3.4275E-04  3.4261E-04                                                                                                                                                                                                                                                                                                                                                                                                                                                                                                                                                                                                            
     625.0000     125.0000   -4975.0000  4.82279E+02  227.154  0.00000E+00  1.00000E+00  1.00001  6.3916  9.9964E-11  9.9964E-11  3.1719E-03  2.7589E-04  9.9999E-11  3.0559E-05  9.9983E-11  3.4275E-04  3.4261E-04                                                                                                                                                                                                                                                                                                                                                                                                                                                                                                                                                                                                            
     760.0000     125.0000   -4975.0000  4.82264E+02  227.153  0.00000E+00  1.00000E+00  1.00001  6.3916  9.9963E-11  9.9963E-11  3.1717E-03  2.7589E-04  9.9998E-11  3.0559E-05  9.9983E-11  3.4275E-04  3.4261E-04                                                                                                                                                                                                                                                                                                                                                                                                                                                                                                                                                                                                            
     780.0000     125.0000   -4975.0000  4.82261E+02  227.153  0.00000E+00  1.00000E+00  1.00001  6.3916  9.9962E-11  9.9962E-11  3.1717E-03  2.7589E-04  9.9999E-11  3.0559E-05  9.9983E-11  3.4275E-04  3.4261E-04                                                                                                                                                                                                                                                                                                                                                                                                                                                                                                                                                                                                            
     800.0000     125.0000   -4975.0000  4.82258E+02  227.154  0.00000E+00  1.00000E+00  1.00001  6.3916  9.9989E-11  9.9989E-11  3.1719E-03  2.7589E-04  1.0002E-10  3.0559E-05  1.0001E-10  3.4275E-04  3.4261E-04                                                                                                                                                                                                                                                                                                                                                                                                                                                                                                                                                                                                            
     935.0000     125.0000   -4975.0000  4.82238E+02  227.153  0.00000E+00  1.00000E+00  1.00001  6.3916  1.0000E-10  1.0000E-10  3.1718E-03  2.7589E-04  1.0004E-10  3.0559E-05  1.0002E-10  3.4275E-04  3.4261E-04                                                                                                                                                                                                                                                                                                                                                                                                                                                                                                                                                                                                            
    1185.0000     125.0000   -4975.0000  4.82174E+02  227.154  0.00000E+00  1.00000E+00  1.00001  6.3916  1.0002E-10  1.0002E-10  3.1719E-03  2.7588E-04  1.0006E-10  3.0558E-05  1.0004E-10  3.4275E-04  3.4261E-04                                                                                                                                                                                                                                                                                                                                                                                                                                                                                                                                                                                                            
    1435.0000     125.0000   -4975.0000  4.82124E+02  227.155  0.00000E+00  1.00000E+00  1.00001  6.3916  1.0002E-10  1.0002E-10  3.1720E-03  2.7588E-04  1.0006E-10  3.0558E-05  1.0004E-10  3.4275E-04  3.4261E-04                                                                                                                                                                                                                                                                                                                                                                                                                                                                                                                                                                                                            
     125.0000     125.0000   -4725.0000  4.60936E+02  216.336  0.00000E+00  1.00000E+00  1.00001  6.5396  9.9878E-11  9.9878E-11  1.8030E-03  2.7612E-04  9.9882E-11  3.1837E-05  9.9879E-11  3.3605E-04  3.3605E-04                                                                                                                                                                                                                                                                                                                                                                                                                                                                                                                                                                                                            
     375.0000     125.0000   -4725.0000  4.61032E+02  216.276  0.00000E+00  1.00000E+00  1.00001  6.5405  9.8970E-11  9.8970E-11  1.7974E-03  2.7614E-04  9.8966E-11  3.1846E-05  9.8967E-11  3.3599E-04  3.3602E-04                                                                                                                                                                                                                                                                                                                                                                                                                                                                                                                                                                                                            
     625.0000     125.0000   -4725.0000  4.61085E+02  215.807  0.00000E+00  1.00000E+00  1.00001  6.5470  9.7238E-11  9.7238E-11  1.7547E-03  2.7613E-04  9.7224E-11  3.1904E-05  9.7230E-11  3.3564E-04  3.3571E-04                                                                                                                                                                                                                                                                                                                                                                                                                                                                                                                                                                                                            
     760.0000     125.0000   -4725.0000  4.61063E+02  215.809  0.00000E+00  1.00000E+00  1.00001  6.5470  9.7236E-11  9.7236E-11  1.7549E-03  2.7613E-04  9.7228E-11  3.1903E-05  9.7233E-11  3.3564E-04  3.3571E-04                                                                                                                                                                                                                                                                                                                                                                                                                                                                                                                                                                                                            
     780.0000     125.0000   -4725.0000  4.61059E+02  215.803  0.00000E+00  1.00000E+00  1.00001  6.5471  9.7182E-11  9.7182E-11  1.7543E-03  2.7613E-04  9.7258E-11  3.1904E-05  9.7264E-11  3.3563E-04  3.3571E-04                                                                                                                                                                                                                                                                                                                                                                                                                                                                                                                                                                                                            
     800.0000     125.0000   -4725.0000  4.61054E+02  216.104  0.00000E+00  1.00000E+00  1.00001  6.5429  9.8175E-11  9.8174E-11  1.7816E-03  2.7615E-04  9.8201E-11  3.1869E-05  9.8211E-11  3.3582E-04  3.3594E-04                                                                                                                                                                                                                                                                                                                                                                                                                                                                                                                                                                                                            
     935.0000     125.0000   -4725.0000  4.61018E+02  216.261  0.00000E+00  1.00000E+00  1.00001  6.5407  9.8720E-11  9.8720E-11  1.7961E-03  2.7614E-04  9.8746E-11  3.1848E-05  9.8748E-11  3.3597E-04  3.3601E-04                                                                                                                                                                                                                                                                                                                                                                                                                                                                                                                                                                                                            
    1185.0000     125.0000   -4725.0000  4.60888E+02  216.335  0.00000E+00  1.00000E+00  1.00001  6.5396  9.9840E-11  9.9840E-11  1.8030E-03  2.7612E-04  9.9848E-11  3.1837E-05  9.9846E-11  3.3605E-04  3.3605E-04                                                                                                                                                                                                                                                                                                                                                                                                                                                                                                                                                                                                            