Title="TOUGHREACT V3.30-OMP: Aqueous Total & Species Concentrations in mol/kg h2o, Surface & Exchanged Species in mol/kg h2o, Dry blocks in mol/L medium"                                                                                                                                                                                                                                                                                                                                                                                                                                                                                                                                                                                                                                                                       
Variables= "X(m)"   "Y(m)"   "Z(m)"   "P(bar)"     "T(C)"   "SatGas"   "SatLiq"     "aH2O"       "pH"        "t_na+"        "t_cl-"      "t_hco3-"       "t_ca+2"      "t_so4-2"       "t_mg+2"       "t_ba+2"       "t_al+3"     "t_h4sio4"                                                                                                                                                                                                                                                                                                                                                                                                                                                                                                                                                                                    
Zone T= "2.32278836E+03 yr" I=      9J=     10K=     23F=Point 
     125.0000     125.0000   -5425.0000  5.47658E+02  261.980  0.00000E+00  1.00000E+00  1.00001  5.9759  1.0006E-10  1.0002E-10  1.9372E-02  2.5988E-04  9.6743E-11  2.5896E-05  9.8130E-11  3.5308E-04  3.6273E-04                                                                                                                                                                                                                                                                                                                                                                                                                                                                                                                                                                                                            
     375.0000     125.0000   -5425.0000  5.47659E+02  261.981  0.00000E+00  1.00000E+00  1.00001  5.9759  1.0006E-10  1.0001E-10  1.9373E-02  2.5988E-04  9.6742E-11  2.5896E-05  9.8129E-11  3.5308E-04  3.6273E-04                                                                                                                                                                                                                                                                                                                                                                                                                                                                                                                                                                                                            
     625.0000     125.0000   -5425.0000  5.47659E+02  261.981  0.00000E+00  1.00000E+00  1.00001  5.9759  1.0006E-10  1.0001E-10  1.9373E-02  2.5988E-04  9.6741E-11  2.5896E-05  9.8129E-11  3.5308E-04  3.6273E-04                                                                                                                                                                                                                                                                                                                                                                                                                                                                                                                                                                                                            
     760.0000     125.0000   -5425.0000  5.47658E+02  261.981  0.00000E+00  1.00000E+00  1.00001  5.9759  1.0006E-10  1.0001E-10  1.9373E-02  2.5988E-04  9.6741E-11  2.5896E-05  9.8129E-11  3.5308E-04  3.6273E-04                                                                                                                                                                                                                                                                                                                                                                                                                                                                                                                                                                                                            
     780.0000     125.0000   -5425.0000  5.47658E+02  261.981  0.00000E+00  1.00000E+00  1.00001  5.9759  1.0006E-10  1.0001E-10  1.9373E-02  2.5988E-04  9.6741E-11  2.5896E-05  9.8129E-11  3.5308E-04  3.6273E-04                                                                                                                                                                                                                                                                                                                                                                                                                                                                                                                                                                                                            
     800.0000     125.0000   -5425.0000  5.47658E+02  261.981  0.00000E+00  1.00000E+00  1.00001  5.9759  1.0006E-10  1.0001E-10  1.9373E-02  2.5988E-04  9.6741E-11  2.5896E-05  9.8129E-11  3.5308E-04  3.6273E-04                                                                                                                                                                                                                                                                                                                                                                                                                                                                                                                                                                                                            
     935.0000     125.0000   -5425.0000  5.47657E+02  261.981  0.00000E+00  1.00000E+00  1.00001  5.9759  1.0006E-10  1.0001E-10  1.9373E-02  2.5988E-04  9.6742E-11  2.5896E-05  9.8130E-11  3.5308E-04  3.6273E-04                                                                                                                                                                                                                                                                                                                                                                                                                                                                                                                                                                                                            
    1185.0000     125.0000   -5425.0000  5.47654E+02  261.981  0.00000E+00  1.00000E+00  1.00001  5.9759  1.0006E-10  1.0002E-10  1.9373E-02  2.5988E-04  9.6743E-11  2.5896E-05  9.8131E-11  3.5308E-04  3.6273E-04                                                                                                                                                                                                                                                                                                                                                                                                                                                                                                                                                                                                            
    1435.0000     125.0000   -5425.0000  5.47653E+02  261.981  0.00000E+00  1.00000E+00  1.00001  5.9759  1.0006E-10  1.0002E-10  1.9373E-02  2.5988E-04  9.6745E-11  2.5896E-05  9.8132E-11  3.5308E-04  3.6273E-04                                                                                                                                                                                                                                                                                                                                                                                                                                                                                                                                                                                                            
     125.0000     125.0000   -5225.0000  5.31068E+02  238.201  0.00000E+00  1.00000E+00  1.00001  6.2505  1.0003E-10  1.0005E-10  5.6813E-03  2.7230E-04  1.0208E-10  2.9079E-05  1.0122E-10  3.5192E-04  3.4506E-04                                                                                                                                                                                                                                                                                                                                                                                                                                                                                                                                                                                                            
     375.0000     125.0000   -5225.0000  5.31069E+02  238.200  0.00000E+00  1.00000E+00  1.00001  6.2506  1.0003E-10  1.0005E-10  5.6809E-03  2.7230E-04  1.0208E-10  2.9079E-05  1.0122E-10  3.5192E-04  3.4506E-04                                                                                                                                                                                                                                                                                                                                                                                                                                                                                                                                                                                                            
     625.0000     125.0000   -5225.0000  5.31069E+02  238.200  0.00000E+00  1.00000E+00  1.00001  6.2506  1.0003E-10  1.0005E-10  5.6809E-03  2.7230E-04  1.0208E-10  2.9079E-05  1.0121E-10  3.5192E-04  3.4506E-04                                                                                                                                                                                                                                                                                                                                                                                                                                                                                                                                                                                                            
     760.0000     125.0000   -5225.0000  5.31068E+02  238.201  0.00000E+00  1.00000E+00  1.00001  6.2506  1.0003E-10  1.0005E-10  5.6811E-03  2.7230E-04  1.0208E-10  2.9079E-05  1.0121E-10  3.5192E-04  3.4506E-04                                                                                                                                                                                                                                                                                                                                                                                                                                                                                                                                                                                                            
     780.0000     125.0000   -5225.0000  5.31068E+02  238.201  0.00000E+00  1.00000E+00  1.00001  6.2506  1.0003E-10  1.0005E-10  5.6811E-03  2.7230E-04  1.0208E-10  2.9079E-05  1.0122E-10  3.5192E-04  3.4506E-04                                                                                                                                                                                                                                                                                                                                                                                                                                                                                                                                                                                                            
     800.0000     125.0000   -5225.0000  5.31068E+02  238.201  0.00000E+00  1.00000E+00  1.00001  6.2506  1.0003E-10  1.0005E-10  5.6812E-03  2.7230E-04  1.0208E-10  2.9079E-05  1.0122E-10  3.5192E-04  3.4506E-04                                                                                                                                                                                                                                                                                                                                                                                                                                                                                                                                                                                                            
     935.0000     125.0000   -5225.0000  5.31067E+02  238.202  0.00000E+00  1.00000E+00  1.00001  6.2505  1.0003E-10  1.0005E-10  5.6814E-03  2.7230E-04  1.0208E-10  2.9079E-05  1.0122E-10  3.5192E-04  3.4506E-04                                                                                                                                                                                                                                                                                                                                                                                                                                                                                                                                                                                                            
    1185.0000     125.0000   -5225.0000  5.31064E+02  238.206  0.00000E+00  1.00000E+00  1.00001  6.2505  1.0003E-10  1.0005E-10  5.6826E-03  2.7230E-04  1.0208E-10  2.9078E-05  1.0122E-10  3.5192E-04  3.4506E-04                                                                                                                                                                                                                                                                                                                                                                                                                                                                                                                                                                                                            
    1435.0000     125.0000   -5225.0000  5.31061E+02  238.210  0.00000E+00  1.00000E+00  1.00001  6.2504  1.0003E-10  1.0005E-10  5.6837E-03  2.7230E-04  1.0208E-10  2.9078E-05  1.0122E-10  3.5192E-04  3.4507E-04                                                                                                                                                                                                                                                                                                                                                                                                                                                                                                                                                                                                            
     125.0000     125.0000   -4975.0000  5.09867E+02  227.273  0.00000E+00  1.00000E+00  1.00001  6.3903  9.9979E-11  9.9986E-11  3.1920E-03  2.7549E-04  1.0081E-10  3.0505E-05  1.0046E-10  3.4445E-04  3.4130E-04                                                                                                                                                                                                                                                                                                                                                                                                                                                                                                                                                                                                            
     375.0000     125.0000   -4975.0000  5.09870E+02  227.266  0.00000E+00  1.00000E+00  1.00001  6.3904  9.9937E-11  9.9944E-11  3.1908E-03  2.7550E-04  1.0077E-10  3.0506E-05  1.0042E-10  3.4444E-04  3.4130E-04                                                                                                                                                                                                                                                                                                                                                                                                                                                                                                                                                                                                            
     625.0000     125.0000   -4975.0000  5.09873E+02  227.258  0.00000E+00  1.00000E+00  1.00001  6.3905  9.9850E-11  9.9857E-11  3.1895E-03  2.7550E-04  1.0068E-10  3.0508E-05  1.0033E-10  3.4443E-04  3.4130E-04                                                                                                                                                                                                                                                                                                                                                                                                                                                                                                                                                                                                            
     760.0000     125.0000   -4975.0000  5.09871E+02  227.259  0.00000E+00  1.00000E+00  1.00001  6.3905  9.9850E-11  9.9857E-11  3.1896E-03  2.7550E-04  1.0068E-10  3.0507E-05  1.0033E-10  3.4443E-04  3.4130E-04                                                                                                                                                                                                                                                                                                                                                                                                                                                                                                                                                                                                            
     780.0000     125.0000   -4975.0000  5.09871E+02  227.259  0.00000E+00  1.00000E+00  1.00001  6.3905  9.9849E-11  9.9856E-11  3.1897E-03  2.7550E-04  1.0068E-10  3.0507E-05  1.0033E-10  3.4443E-04  3.4130E-04                                                                                                                                                                                                                                                                                                                                                                                                                                                                                                                                                                                                            
     800.0000     125.0000   -4975.0000  5.09871E+02  227.265  0.00000E+00  1.00000E+00  1.00001  6.3904  9.9896E-11  9.9903E-11  3.1906E-03  2.7550E-04  1.0073E-10  3.0506E-05  1.0038E-10  3.4443E-04  3.4130E-04                                                                                                                                                                                                                                                                                                                                                                                                                                                                                                                                                                                                            
     935.0000     125.0000   -4975.0000  5.09868E+02  227.269  0.00000E+00  1.00000E+00  1.00001  6.3904  9.9928E-11  9.9935E-11  3.1913E-03  2.7550E-04  1.0076E-10  3.0506E-05  1.0041E-10  3.4444E-04  3.4130E-04                                                                                                                                                                                                                                                                                                                                                                                                                                                                                                                                                                                                            
    1185.0000     125.0000   -4975.0000  5.09863E+02  227.282  0.00000E+00  1.00000E+00  1.00001  6.3902  9.9981E-11  9.9988E-11  3.1935E-03  2.7549E-04  1.0082E-10  3.0504E-05  1.0046E-10  3.4446E-04  3.4130E-04                                                                                                                                                                                                                                                                                                                                                                                                                                                                                                                                                                                                            
    1435.0000     125.0000   -4975.0000  5.09859E+02  227.294  0.00000E+00  1.00000E+00  1.00001  6.3900  9.9995E-11  1.0000E-10  3.1956E-03  2.7549E-04  1.0084E-10  3.0502E-05  1.0048E-10  3.4447E-04  3.4130E-04                                                                                                                                                                                                                                                                                                                                                                                                                                                                                                                                                                                                            
     125.0000     125.0000   -4725.0000  4.88397E+02  215.843  0.00000E+00  1.00000E+00  1.00001  6.5466  9.6452E-11  9.6453E-11  1.7580E-03  2.7603E-04  9.6615E-11  3.1888E-05  9.6544E-11  3.3604E-04  3.3542E-04                                                                                                                                                                                                                                                                                                                                                                                                                                                                                                                                                                                                            
     375.0000     125.0000   -4725.0000  4.88399E+02  215.433  0.00000E+00  1.00000E+00  1.00001  6.5524  9.5293E-11  9.5294E-11  1.7214E-03  2.7605E-04  9.5389E-11  3.1942E-05  9.5347E-11  3.3561E-04  3.3525E-04                                                                                                                                                                                                                                                                                                                                                                                                                                                                                                                                                                                                            
     625.0000     125.0000   -4725.0000  4.88400E+02  214.729  0.00000E+00  1.00000E+00  1.00001  6.5623  9.3541E-11  9.3541E-11  1.6604E-03  2.7604E-04  9.3575E-11  3.2030E-05  9.3560E-11  3.3499E-04  3.3485E-04                                                                                                                                                                                                                                                                                                                                                                                                                                                                                                                                                                                                            
     760.0000     125.0000   -4725.0000  4.88399E+02  214.695  0.00000E+00  1.00000E+00  1.00001  6.5628  9.3456E-11  9.3456E-11  1.6575E-03  2.7604E-04  9.3499E-11  3.2034E-05  9.3486E-11  3.3495E-04  3.3484E-04                                                                                                                                                                                                                                                                                                                                                                                                                                                                                                                                                                                                            
     780.0000     125.0000   -4725.0000  4.88399E+02  214.676  0.00000E+00  1.00000E+00  1.00001  6.5631  9.3435E-11  9.3435E-11  1.6559E-03  2.7604E-04  9.3649E-11  3.2036E-05  9.3637E-11  3.3494E-04  3.3483E-04                                                                                                                                                                                                                                                                                                                                                                                                                                                                                                                                                                                                            
     800.0000     125.0000   -4725.0000  4.88399E+02  215.216  0.00000E+00  1.00000E+00  1.00001  6.5554  9.4461E-11  9.4461E-11  1.7023E-03  2.7606E-04  9.4671E-11  3.1970E-05  9.4644E-11  3.3538E-04  3.3516E-04                                                                                                                                                                                                                                                                                                                                                                                                                                                                                                                                                                                                            
     935.0000     125.0000   -4725.0000  4.88397E+02  215.485  0.00000E+00  1.00000E+00  1.00001  6.5517  9.5133E-11  9.5134E-11  1.7259E-03  2.7605E-04  9.5358E-11  3.1935E-05  9.5312E-11  3.3566E-04  3.3528E-04                                                                                                                                                                                                                                                                                                                                                                                                                                                                                                                                                                                                            
    1185.0000     125.0000   -4725.0000  4.88394E+02  215.968  0.00000E+00  1.00000E+00  1.00001  6.5449  9.6572E-11  9.6573E-11  1.7693E-03  2.7602E-04  9.6841E-11  3.1872E-05  9.6761E-11  3.3615E-04  3.3549E-04                                                                                                                                                                                                                                                                                                                                                                                                                                                                                                                                                                                                            