Title="TOUGHREACT V3.30-OMP: Aqueous Total & Species Concentrations in mol/kg h2o, Surface & Exchanged Species in mol/kg h2o, Dry blocks in mol/L medium"                                                                                                                                                                                                                                                                                                                                                                                                                                                                                                                                                                                                                                                                       
Variables= "X(m)"   "Y(m)"   "Z(m)"   "P(bar)"     "T(C)"   "SatGas"   "SatLiq"     "aH2O"       "pH"        "t_na+"        "t_cl-"      "t_hco3-"       "t_ca+2"      "t_so4-2"       "t_mg+2"       "t_ba+2"       "t_al+3"     "t_h4sio4"                                                                                                                                                                                                                                                                                                                                                                                                                                                                                                                                                                                    
Zone T= "3.06113718E+03 yr" I=      9J=     10K=     23F=Point 
     125.0000     125.0000   -5425.0000  5.47562E+02  266.786  0.00000E+00  1.00000E+00  1.00001  5.9255  1.0008E-10  9.9999E-11  2.4630E-02  2.5640E-04  9.4749E-11  2.5213E-05  9.6969E-11  3.5229E-04  3.6766E-04                                                                                                                                                                                                                                                                                                                                                                                                                                                                                                                                                                                                            
     375.0000     125.0000   -5425.0000  5.47563E+02  266.787  0.00000E+00  1.00000E+00  1.00001  5.9255  1.0008E-10  9.9998E-11  2.4631E-02  2.5640E-04  9.4748E-11  2.5213E-05  9.6968E-11  3.5229E-04  3.6766E-04                                                                                                                                                                                                                                                                                                                                                                                                                                                                                                                                                                                                            
     625.0000     125.0000   -5425.0000  5.47563E+02  266.787  0.00000E+00  1.00000E+00  1.00001  5.9255  1.0008E-10  9.9997E-11  2.4631E-02  2.5640E-04  9.4747E-11  2.5213E-05  9.6967E-11  3.5229E-04  3.6766E-04                                                                                                                                                                                                                                                                                                                                                                                                                                                                                                                                                                                                            
     760.0000     125.0000   -5425.0000  5.47562E+02  266.787  0.00000E+00  1.00000E+00  1.00001  5.9255  1.0008E-10  9.9997E-11  2.4631E-02  2.5640E-04  9.4747E-11  2.5213E-05  9.6967E-11  3.5229E-04  3.6766E-04                                                                                                                                                                                                                                                                                                                                                                                                                                                                                                                                                                                                            
     780.0000     125.0000   -5425.0000  5.47562E+02  266.787  0.00000E+00  1.00000E+00  1.00001  5.9255  1.0008E-10  9.9998E-11  2.4631E-02  2.5640E-04  9.4747E-11  2.5213E-05  9.6967E-11  3.5229E-04  3.6766E-04                                                                                                                                                                                                                                                                                                                                                                                                                                                                                                                                                                                                            
     800.0000     125.0000   -5425.0000  5.47562E+02  266.787  0.00000E+00  1.00000E+00  1.00001  5.9255  1.0008E-10  9.9998E-11  2.4631E-02  2.5640E-04  9.4747E-11  2.5213E-05  9.6968E-11  3.5229E-04  3.6766E-04                                                                                                                                                                                                                                                                                                                                                                                                                                                                                                                                                                                                            
     935.0000     125.0000   -5425.0000  5.47561E+02  266.787  0.00000E+00  1.00000E+00  1.00001  5.9255  1.0008E-10  9.9998E-11  2.4631E-02  2.5640E-04  9.4748E-11  2.5213E-05  9.6968E-11  3.5229E-04  3.6766E-04                                                                                                                                                                                                                                                                                                                                                                                                                                                                                                                                                                                                            
    1185.0000     125.0000   -5425.0000  5.47558E+02  266.787  0.00000E+00  1.00000E+00  1.00001  5.9255  1.0008E-10  1.0000E-10  2.4631E-02  2.5640E-04  9.4750E-11  2.5213E-05  9.6970E-11  3.5229E-04  3.6766E-04                                                                                                                                                                                                                                                                                                                                                                                                                                                                                                                                                                                                            
    1435.0000     125.0000   -5425.0000  5.47557E+02  266.787  0.00000E+00  1.00000E+00  1.00001  5.9255  1.0008E-10  1.0000E-10  2.4631E-02  2.5640E-04  9.4752E-11  2.5213E-05  9.6972E-11  3.5229E-04  3.6766E-04                                                                                                                                                                                                                                                                                                                                                                                                                                                                                                                                                                                                            
     125.0000     125.0000   -5225.0000  5.31030E+02  238.233  0.00000E+00  1.00000E+00  1.00001  6.2504  1.0002E-10  1.0005E-10  5.6909E-03  2.7204E-04  1.0271E-10  2.9050E-05  1.0158E-10  3.5308E-04  3.4412E-04                                                                                                                                                                                                                                                                                                                                                                                                                                                                                                                                                                                                            
     375.0000     125.0000   -5225.0000  5.31031E+02  238.231  0.00000E+00  1.00000E+00  1.00001  6.2504  1.0002E-10  1.0005E-10  5.6903E-03  2.7205E-04  1.0271E-10  2.9051E-05  1.0158E-10  3.5308E-04  3.4411E-04                                                                                                                                                                                                                                                                                                                                                                                                                                                                                                                                                                                                            
     625.0000     125.0000   -5225.0000  5.31032E+02  238.230  0.00000E+00  1.00000E+00  1.00001  6.2504  1.0002E-10  1.0005E-10  5.6901E-03  2.7205E-04  1.0271E-10  2.9051E-05  1.0158E-10  3.5308E-04  3.4411E-04                                                                                                                                                                                                                                                                                                                                                                                                                                                                                                                                                                                                            
     760.0000     125.0000   -5225.0000  5.31031E+02  238.231  0.00000E+00  1.00000E+00  1.00001  6.2504  1.0002E-10  1.0005E-10  5.6904E-03  2.7205E-04  1.0271E-10  2.9051E-05  1.0158E-10  3.5308E-04  3.4411E-04                                                                                                                                                                                                                                                                                                                                                                                                                                                                                                                                                                                                            
     780.0000     125.0000   -5225.0000  5.31030E+02  238.232  0.00000E+00  1.00000E+00  1.00001  6.2504  1.0002E-10  1.0005E-10  5.6904E-03  2.7205E-04  1.0271E-10  2.9051E-05  1.0158E-10  3.5308E-04  3.4411E-04                                                                                                                                                                                                                                                                                                                                                                                                                                                                                                                                                                                                            
     800.0000     125.0000   -5225.0000  5.31030E+02  238.232  0.00000E+00  1.00000E+00  1.00001  6.2504  1.0002E-10  1.0005E-10  5.6905E-03  2.7205E-04  1.0271E-10  2.9051E-05  1.0158E-10  3.5308E-04  3.4411E-04                                                                                                                                                                                                                                                                                                                                                                                                                                                                                                                                                                                                            
     935.0000     125.0000   -5225.0000  5.31029E+02  238.233  0.00000E+00  1.00000E+00  1.00001  6.2504  1.0002E-10  1.0005E-10  5.6909E-03  2.7204E-04  1.0271E-10  2.9050E-05  1.0158E-10  3.5308E-04  3.4411E-04                                                                                                                                                                                                                                                                                                                                                                                                                                                                                                                                                                                                            
    1185.0000     125.0000   -5225.0000  5.31026E+02  238.238  0.00000E+00  1.00000E+00  1.00001  6.2503  1.0002E-10  1.0005E-10  5.6923E-03  2.7204E-04  1.0271E-10  2.9050E-05  1.0158E-10  3.5308E-04  3.4412E-04                                                                                                                                                                                                                                                                                                                                                                                                                                                                                                                                                                                                            
    1435.0000     125.0000   -5225.0000  5.31024E+02  238.243  0.00000E+00  1.00000E+00  1.00001  6.2503  1.0002E-10  1.0005E-10  5.6937E-03  2.7204E-04  1.0271E-10  2.9049E-05  1.0158E-10  3.5309E-04  3.4412E-04                                                                                                                                                                                                                                                                                                                                                                                                                                                                                                                                                                                                            
     125.0000     125.0000   -4975.0000  5.09830E+02  227.287  0.00000E+00  1.00000E+00  1.00001  6.3902  9.9979E-11  9.9988E-11  3.1944E-03  2.7537E-04  1.0108E-10  3.0491E-05  1.0061E-10  3.4499E-04  3.4085E-04                                                                                                                                                                                                                                                                                                                                                                                                                                                                                                                                                                                                            
     375.0000     125.0000   -4975.0000  5.09833E+02  227.279  0.00000E+00  1.00000E+00  1.00001  6.3903  9.9937E-11  9.9947E-11  3.1931E-03  2.7537E-04  1.0103E-10  3.0492E-05  1.0057E-10  3.4498E-04  3.4085E-04                                                                                                                                                                                                                                                                                                                                                                                                                                                                                                                                                                                                            
     625.0000     125.0000   -4975.0000  5.09836E+02  227.270  0.00000E+00  1.00000E+00  1.00001  6.3905  9.9850E-11  9.9859E-11  3.1916E-03  2.7538E-04  1.0094E-10  3.0493E-05  1.0048E-10  3.4497E-04  3.4085E-04                                                                                                                                                                                                                                                                                                                                                                                                                                                                                                                                                                                                            
     760.0000     125.0000   -4975.0000  5.09834E+02  227.272  0.00000E+00  1.00000E+00  1.00001  6.3904  9.9850E-11  9.9859E-11  3.1918E-03  2.7538E-04  1.0094E-10  3.0493E-05  1.0048E-10  3.4497E-04  3.4085E-04                                                                                                                                                                                                                                                                                                                                                                                                                                                                                                                                                                                                            
     780.0000     125.0000   -4975.0000  5.09834E+02  227.272  0.00000E+00  1.00000E+00  1.00001  6.3904  9.9850E-11  9.9859E-11  3.1918E-03  2.7538E-04  1.0095E-10  3.0493E-05  1.0048E-10  3.4497E-04  3.4085E-04                                                                                                                                                                                                                                                                                                                                                                                                                                                                                                                                                                                                            
     800.0000     125.0000   -4975.0000  5.09833E+02  227.278  0.00000E+00  1.00000E+00  1.00001  6.3904  9.9896E-11  9.9905E-11  3.1928E-03  2.7538E-04  1.0099E-10  3.0492E-05  1.0053E-10  3.4498E-04  3.4085E-04                                                                                                                                                                                                                                                                                                                                                                                                                                                                                                                                                                                                            
     935.0000     125.0000   -4975.0000  5.09831E+02  227.283  0.00000E+00  1.00000E+00  1.00001  6.3903  9.9928E-11  9.9938E-11  3.1937E-03  2.7537E-04  1.0103E-10  3.0491E-05  1.0056E-10  3.4499E-04  3.4085E-04                                                                                                                                                                                                                                                                                                                                                                                                                                                                                                                                                                                                            
    1185.0000     125.0000   -4975.0000  5.09826E+02  227.296  0.00000E+00  1.00000E+00  1.00001  6.3901  9.9981E-11  9.9991E-11  3.1960E-03  2.7537E-04  1.0108E-10  3.0489E-05  1.0062E-10  3.4501E-04  3.4085E-04                                                                                                                                                                                                                                                                                                                                                                                                                                                                                                                                                                                                            
    1435.0000     125.0000   -4975.0000  5.09822E+02  227.310  0.00000E+00  1.00000E+00  1.00001  6.3899  9.9996E-11  1.0001E-10  3.1983E-03  2.7536E-04  1.0110E-10  3.0487E-05  1.0064E-10  3.4502E-04  3.4085E-04                                                                                                                                                                                                                                                                                                                                                                                                                                                                                                                                                                                                            
     125.0000     125.0000   -4725.0000  4.88360E+02  215.861  0.00000E+00  1.00000E+00  1.00001  6.5464  9.6487E-11  9.6489E-11  1.7596E-03  2.7599E-04  9.6729E-11  3.1881E-05  9.6624E-11  3.3624E-04  3.3527E-04                                                                                                                                                                                                                                                                                                                                                                                                                                                                                                                                                                                                            
     375.0000     125.0000   -4725.0000  4.88361E+02  215.449  0.00000E+00  1.00000E+00  1.00001  6.5522  9.5326E-11  9.5328E-11  1.7228E-03  2.7601E-04  9.5496E-11  3.1935E-05  9.5422E-11  3.3581E-04  3.3510E-04                                                                                                                                                                                                                                                                                                                                                                                                                                                                                                                                                                                                            
     625.0000     125.0000   -4725.0000  4.88363E+02  214.742  0.00000E+00  1.00000E+00  1.00001  6.5622  9.3567E-11  9.3568E-11  1.6615E-03  2.7600E-04  9.3667E-11  3.2024E-05  9.3624E-11  3.3517E-04  3.3472E-04                                                                                                                                                                                                                                                                                                                                                                                                                                                                                                                                                                                                            
     760.0000     125.0000   -4725.0000  4.88362E+02  214.707  0.00000E+00  1.00000E+00  1.00001  6.5627  9.3480E-11  9.3481E-11  1.6586E-03  2.7600E-04  9.3590E-11  3.2028E-05  9.3549E-11  3.3513E-04  3.3471E-04                                                                                                                                                                                                                                                                                                                                                                                                                                                                                                                                                                                                            
     780.0000     125.0000   -4725.0000  4.88362E+02  214.688  0.00000E+00  1.00000E+00  1.00001  6.5630  9.3469E-11  9.3470E-11  1.6569E-03  2.7600E-04  9.3746E-11  3.2031E-05  9.3705E-11  3.3511E-04  3.3469E-04                                                                                                                                                                                                                                                                                                                                                                                                                                                                                                                                                                                                            
     800.0000     125.0000   -4725.0000  4.88361E+02  215.231  0.00000E+00  1.00000E+00  1.00001  6.5553  9.4479E-11  9.4480E-11  1.7036E-03  2.7602E-04  9.4761E-11  3.1964E-05  9.4703E-11  3.3557E-04  3.3502E-04                                                                                                                                                                                                                                                                                                                                                                                                                                                                                                                                                                                                            
     935.0000     125.0000   -4725.0000  4.88360E+02  215.500  0.00000E+00  1.00000E+00  1.00001  6.5515  9.5167E-11  9.5168E-11  1.7273E-03  2.7601E-04  9.5466E-11  3.1929E-05  9.5389E-11  3.3585E-04  3.3513E-04                                                                                                                                                                                                                                                                                                                                                                                                                                                                                                                                                                                                            
    1185.0000     125.0000   -4725.0000  4.88357E+02  215.985  0.00000E+00  1.00000E+00  1.00001  6.5447  9.6605E-11  9.6607E-11  1.7708E-03  2.7598E-04  9.6955E-11  3.1865E-05  9.6840E-11  3.3636E-04  3.3534E-04                                                                                                                                                                                                                                                                                                                                                                                                                                                                                                                                                                                                            