Title="TOUGHREACT V3.30-OMP: Aqueous Total & Species Concentrations in mol/kg h2o, Surface & Exchanged Species in mol/kg h2o, Dry blocks in mol/L medium"                                                                                                                                                                                                                                                                                                                                                                                                                                                                                                                                                                                                                                                                       
Variables= "X(m)"   "Y(m)"   "Z(m)"   "P(bar)"     "T(C)"   "SatGas"   "SatLiq"     "aH2O"       "pH"        "t_na+"        "t_cl-"      "t_hco3-"       "t_ca+2"      "t_so4-2"       "t_mg+2"       "t_ba+2"       "t_al+3"     "t_h4sio4"                                                                                                                                                                                                                                                                                                                                                                                                                                                                                                                                                                                    
Zone T= "8.42921833E+02 yr" I=      9J=     10K=     23F=Point 
     125.0000     125.0000   -5425.0000  5.47759E+02  252.359  0.00000E+00  1.00000E+00  1.00001  6.0818  1.0004E-10  1.0003E-10  1.1876E-02  2.6612E-04  9.9340E-11  2.7239E-05  9.9632E-11  3.5307E-04  3.5515E-04                                                                                                                                                                                                                                                                                                                                                                                                                                                                                                                                                                                                            
     375.0000     125.0000   -5425.0000  5.47759E+02  252.359  0.00000E+00  1.00000E+00  1.00001  6.0818  1.0004E-10  1.0003E-10  1.1876E-02  2.6612E-04  9.9340E-11  2.7239E-05  9.9631E-11  3.5307E-04  3.5515E-04                                                                                                                                                                                                                                                                                                                                                                                                                                                                                                                                                                                                            
     625.0000     125.0000   -5425.0000  5.47757E+02  252.360  0.00000E+00  1.00000E+00  1.00001  6.0818  1.0004E-10  1.0003E-10  1.1877E-02  2.6611E-04  9.9339E-11  2.7239E-05  9.9631E-11  3.5307E-04  3.5515E-04                                                                                                                                                                                                                                                                                                                                                                                                                                                                                                                                                                                                            
     760.0000     125.0000   -5425.0000  5.47755E+02  252.360  0.00000E+00  1.00000E+00  1.00001  6.0818  1.0004E-10  1.0003E-10  1.1877E-02  2.6612E-04  9.9340E-11  2.7239E-05  9.9631E-11  3.5307E-04  3.5515E-04                                                                                                                                                                                                                                                                                                                                                                                                                                                                                                                                                                                                            
     780.0000     125.0000   -5425.0000  5.47754E+02  252.360  0.00000E+00  1.00000E+00  1.00001  6.0818  1.0004E-10  1.0003E-10  1.1877E-02  2.6612E-04  9.9340E-11  2.7239E-05  9.9631E-11  3.5307E-04  3.5515E-04                                                                                                                                                                                                                                                                                                                                                                                                                                                                                                                                                                                                            
     800.0000     125.0000   -5425.0000  5.47754E+02  252.360  0.00000E+00  1.00000E+00  1.00001  6.0818  1.0004E-10  1.0003E-10  1.1877E-02  2.6612E-04  9.9340E-11  2.7239E-05  9.9631E-11  3.5307E-04  3.5515E-04                                                                                                                                                                                                                                                                                                                                                                                                                                                                                                                                                                                                            
     935.0000     125.0000   -5425.0000  5.47751E+02  252.359  0.00000E+00  1.00000E+00  1.00001  6.0818  1.0004E-10  1.0003E-10  1.1876E-02  2.6612E-04  9.9340E-11  2.7239E-05  9.9631E-11  3.5307E-04  3.5515E-04                                                                                                                                                                                                                                                                                                                                                                                                                                                                                                                                                                                                            
    1185.0000     125.0000   -5425.0000  5.47745E+02  252.359  0.00000E+00  1.00000E+00  1.00001  6.0818  1.0004E-10  1.0003E-10  1.1876E-02  2.6612E-04  9.9340E-11  2.7239E-05  9.9632E-11  3.5307E-04  3.5515E-04                                                                                                                                                                                                                                                                                                                                                                                                                                                                                                                                                                                                            
    1435.0000     125.0000   -5425.0000  5.47741E+02  252.359  0.00000E+00  1.00000E+00  1.00001  6.0818  1.0004E-10  1.0003E-10  1.1876E-02  2.6611E-04  9.9342E-11  2.7239E-05  9.9633E-11  3.5308E-04  3.5515E-04                                                                                                                                                                                                                                                                                                                                                                                                                                                                                                                                                                                                            
     125.0000     125.0000   -5225.0000  5.31055E+02  238.156  0.00000E+00  1.00000E+00  1.00001  6.2507  1.0003E-10  1.0004E-10  5.6674E-03  2.7283E-04  1.0080E-10  2.9136E-05  1.0048E-10  3.4957E-04  3.4701E-04                                                                                                                                                                                                                                                                                                                                                                                                                                                                                                                                                                                                            
     375.0000     125.0000   -5225.0000  5.31056E+02  238.156  0.00000E+00  1.00000E+00  1.00001  6.2507  1.0003E-10  1.0004E-10  5.6674E-03  2.7283E-04  1.0080E-10  2.9136E-05  1.0048E-10  3.4957E-04  3.4701E-04                                                                                                                                                                                                                                                                                                                                                                                                                                                                                                                                                                                                            
     625.0000     125.0000   -5225.0000  5.31054E+02  238.156  0.00000E+00  1.00000E+00  1.00001  6.2507  1.0003E-10  1.0004E-10  5.6677E-03  2.7282E-04  1.0079E-10  2.9136E-05  1.0047E-10  3.4957E-04  3.4701E-04                                                                                                                                                                                                                                                                                                                                                                                                                                                                                                                                                                                                            
     760.0000     125.0000   -5225.0000  5.31051E+02  238.157  0.00000E+00  1.00000E+00  1.00001  6.2507  1.0003E-10  1.0004E-10  5.6677E-03  2.7282E-04  1.0079E-10  2.9136E-05  1.0047E-10  3.4957E-04  3.4701E-04                                                                                                                                                                                                                                                                                                                                                                                                                                                                                                                                                                                                            
     780.0000     125.0000   -5225.0000  5.31051E+02  238.157  0.00000E+00  1.00000E+00  1.00001  6.2507  1.0003E-10  1.0004E-10  5.6677E-03  2.7282E-04  1.0079E-10  2.9136E-05  1.0047E-10  3.4957E-04  3.4701E-04                                                                                                                                                                                                                                                                                                                                                                                                                                                                                                                                                                                                            
     800.0000     125.0000   -5225.0000  5.31050E+02  238.157  0.00000E+00  1.00000E+00  1.00001  6.2507  1.0003E-10  1.0004E-10  5.6677E-03  2.7282E-04  1.0079E-10  2.9136E-05  1.0047E-10  3.4957E-04  3.4701E-04                                                                                                                                                                                                                                                                                                                                                                                                                                                                                                                                                                                                            
     935.0000     125.0000   -5225.0000  5.31047E+02  238.157  0.00000E+00  1.00000E+00  1.00001  6.2507  1.0003E-10  1.0004E-10  5.6678E-03  2.7282E-04  1.0080E-10  2.9136E-05  1.0048E-10  3.4957E-04  3.4701E-04                                                                                                                                                                                                                                                                                                                                                                                                                                                                                                                                                                                                            
    1185.0000     125.0000   -5225.0000  5.31040E+02  238.159  0.00000E+00  1.00000E+00  1.00001  6.2506  1.0003E-10  1.0004E-10  5.6684E-03  2.7282E-04  1.0080E-10  2.9135E-05  1.0048E-10  3.4957E-04  3.4701E-04                                                                                                                                                                                                                                                                                                                                                                                                                                                                                                                                                                                                            
    1435.0000     125.0000   -5225.0000  5.31034E+02  238.161  0.00000E+00  1.00000E+00  1.00001  6.2506  1.0003E-10  1.0004E-10  5.6691E-03  2.7282E-04  1.0080E-10  2.9135E-05  1.0048E-10  3.4957E-04  3.4701E-04                                                                                                                                                                                                                                                                                                                                                                                                                                                                                                                                                                                                            
     125.0000     125.0000   -4975.0000  5.09857E+02  227.245  0.00000E+00  1.00000E+00  1.00001  6.3905  9.9978E-11  9.9980E-11  3.1871E-03  2.7575E-04  1.0028E-10  3.0534E-05  1.0015E-10  3.4336E-04  3.4219E-04                                                                                                                                                                                                                                                                                                                                                                                                                                                                                                                                                                                                            
     375.0000     125.0000   -4975.0000  5.09860E+02  227.240  0.00000E+00  1.00000E+00  1.00001  6.3905  9.9937E-11  9.9939E-11  3.1863E-03  2.7575E-04  1.0024E-10  3.0535E-05  1.0011E-10  3.4335E-04  3.4219E-04                                                                                                                                                                                                                                                                                                                                                                                                                                                                                                                                                                                                            
     625.0000     125.0000   -4975.0000  5.09861E+02  227.234  0.00000E+00  1.00000E+00  1.00001  6.3906  9.9850E-11  9.9853E-11  3.1853E-03  2.7575E-04  1.0015E-10  3.0536E-05  1.0002E-10  3.4334E-04  3.4219E-04                                                                                                                                                                                                                                                                                                                                                                                                                                                                                                                                                                                                            
     760.0000     125.0000   -4975.0000  5.09856E+02  227.234  0.00000E+00  1.00000E+00  1.00001  6.3906  9.9850E-11  9.9853E-11  3.1853E-03  2.7575E-04  1.0015E-10  3.0536E-05  1.0002E-10  3.4334E-04  3.4219E-04                                                                                                                                                                                                                                                                                                                                                                                                                                                                                                                                                                                                            
     780.0000     125.0000   -4975.0000  5.09855E+02  227.234  0.00000E+00  1.00000E+00  1.00001  6.3906  9.9848E-11  9.9851E-11  3.1853E-03  2.7575E-04  1.0016E-10  3.0536E-05  1.0003E-10  3.4334E-04  3.4219E-04                                                                                                                                                                                                                                                                                                                                                                                                                                                                                                                                                                                                            
     800.0000     125.0000   -4975.0000  5.09855E+02  227.239  0.00000E+00  1.00000E+00  1.00001  6.3906  9.9898E-11  9.9900E-11  3.1863E-03  2.7575E-04  1.0020E-10  3.0535E-05  1.0008E-10  3.4335E-04  3.4219E-04                                                                                                                                                                                                                                                                                                                                                                                                                                                                                                                                                                                                            
     935.0000     125.0000   -4975.0000  5.09849E+02  227.242  0.00000E+00  1.00000E+00  1.00001  6.3905  9.9928E-11  9.9930E-11  3.1867E-03  2.7575E-04  1.0023E-10  3.0535E-05  1.0011E-10  3.4335E-04  3.4219E-04                                                                                                                                                                                                                                                                                                                                                                                                                                                                                                                                                                                                            
    1185.0000     125.0000   -4975.0000  5.09836E+02  227.252  0.00000E+00  1.00000E+00  1.00001  6.3904  9.9980E-11  9.9983E-11  3.1883E-03  2.7574E-04  1.0029E-10  3.0533E-05  1.0016E-10  3.4336E-04  3.4219E-04                                                                                                                                                                                                                                                                                                                                                                                                                                                                                                                                                                                                            
    1435.0000     125.0000   -4975.0000  5.09824E+02  227.262  0.00000E+00  1.00000E+00  1.00001  6.3903  9.9994E-11  9.9997E-11  3.1900E-03  2.7574E-04  1.0031E-10  3.0532E-05  1.0017E-10  3.4337E-04  3.4219E-04                                                                                                                                                                                                                                                                                                                                                                                                                                                                                                                                                                                                            
     125.0000     125.0000   -4725.0000  4.88390E+02  215.809  0.00000E+00  1.00000E+00  1.00001  6.5470  9.6385E-11  9.6385E-11  1.7549E-03  2.7612E-04  9.6393E-11  3.1902E-05  9.6389E-11  3.3563E-04  3.3572E-04                                                                                                                                                                                                                                                                                                                                                                                                                                                                                                                                                                                                            
     375.0000     125.0000   -4725.0000  4.88393E+02  215.402  0.00000E+00  1.00000E+00  1.00001  6.5527  9.5231E-11  9.5231E-11  1.7186E-03  2.7613E-04  9.5180E-11  3.1955E-05  9.5202E-11  3.3523E-04  3.3553E-04                                                                                                                                                                                                                                                                                                                                                                                                                                                                                                                                                                                                            
     625.0000     125.0000   -4725.0000  4.88394E+02  214.705  0.00000E+00  1.00000E+00  1.00001  6.5626  9.3495E-11  9.3495E-11  1.6583E-03  2.7611E-04  9.3400E-11  3.2041E-05  9.3442E-11  3.3464E-04  3.3512E-04                                                                                                                                                                                                                                                                                                                                                                                                                                                                                                                                                                                                            
     760.0000     125.0000   -4725.0000  4.88388E+02  214.672  0.00000E+00  1.00000E+00  1.00001  6.5631  9.3418E-11  9.3417E-11  1.6555E-03  2.7612E-04  9.3327E-11  3.2045E-05  9.3371E-11  3.3461E-04  3.3510E-04                                                                                                                                                                                                                                                                                                                                                                                                                                                                                                                                                                                                            
     780.0000     125.0000   -4725.0000  4.88387E+02  214.653  0.00000E+00  1.00000E+00  1.00001  6.5633  9.3377E-11  9.3376E-11  1.6540E-03  2.7612E-04  9.3469E-11  3.2047E-05  9.3514E-11  3.3459E-04  3.3509E-04                                                                                                                                                                                                                                                                                                                                                                                                                                                                                                                                                                                                            
     800.0000     125.0000   -4725.0000  4.88385E+02  215.190  0.00000E+00  1.00000E+00  1.00001  6.5557  9.4435E-11  9.4435E-11  1.7000E-03  2.7614E-04  9.4505E-11  3.1982E-05  9.4539E-11  3.3501E-04  3.3544E-04                                                                                                                                                                                                                                                                                                                                                                                                                                                                                                                                                                                                            
     935.0000     125.0000   -4725.0000  4.88377E+02  215.453  0.00000E+00  1.00000E+00  1.00001  6.5520  9.5064E-11  9.5064E-11  1.7230E-03  2.7613E-04  9.5142E-11  3.1948E-05  9.5161E-11  3.3527E-04  3.3557E-04                                                                                                                                                                                                                                                                                                                                                                                                                                                                                                                                                                                                            
    1185.0000     125.0000   -4725.0000  4.88357E+02  215.931  0.00000E+00  1.00000E+00  1.00001  6.5453  9.6498E-11  9.6498E-11  1.7659E-03  2.7611E-04  9.6608E-11  3.1886E-05  9.6597E-11  3.3574E-04  3.3580E-04                                                                                                                                                                                                                                                                                                                                                                                                                                                                                                                                                                                                            