Title="TOUGHREACT V3.30-OMP: Aqueous Total & Species Concentrations in mol/kg h2o, Surface & Exchanged Species in mol/kg h2o, Dry blocks in mol/L medium"                                                                                                                                                                                                                                                                                                                                                                                                                                                                                                                                                                                                                                                                       
Variables= "X(m)"   "Y(m)"   "Z(m)"   "P(bar)"     "T(C)"   "SatGas"   "SatLiq"     "aH2O"       "pH"        "t_na+"        "t_cl-"      "t_hco3-"       "t_ca+2"      "t_so4-2"       "t_mg+2"       "t_ba+2"       "t_al+3"     "t_h4sio4"                                                                                                                                                                                                                                                                                                                                                                                                                                                                                                                                                                                    
Zone T= "3.16887907E+02 yr" I=      9J=     10K=     23F=Point 
     125.0000     125.0000   -5425.0000  5.46058E+02  248.930  0.00000E+00  1.00000E+00  1.00001  6.1212  1.0003E-10  1.0003E-10  9.9504E-03  2.6805E-04  9.9931E-11  2.7708E-05  9.9973E-11  3.5263E-04  3.5292E-04                                                                                                                                                                                                                                                                                                                                                                                                                                                                                                                                                                                                            
     375.0000     125.0000   -5425.0000  5.46056E+02  248.930  0.00000E+00  1.00000E+00  1.00001  6.1212  1.0003E-10  1.0003E-10  9.9506E-03  2.6805E-04  9.9931E-11  2.7708E-05  9.9972E-11  3.5263E-04  3.5292E-04                                                                                                                                                                                                                                                                                                                                                                                                                                                                                                                                                                                                            
     625.0000     125.0000   -5425.0000  5.46051E+02  248.931  0.00000E+00  1.00000E+00  1.00001  6.1212  1.0003E-10  1.0003E-10  9.9509E-03  2.6805E-04  9.9931E-11  2.7708E-05  9.9972E-11  3.5263E-04  3.5292E-04                                                                                                                                                                                                                                                                                                                                                                                                                                                                                                                                                                                                            
     760.0000     125.0000   -5425.0000  5.46045E+02  248.931  0.00000E+00  1.00000E+00  1.00001  6.1212  1.0003E-10  1.0003E-10  9.9508E-03  2.6805E-04  9.9931E-11  2.7708E-05  9.9972E-11  3.5263E-04  3.5292E-04                                                                                                                                                                                                                                                                                                                                                                                                                                                                                                                                                                                                            
     780.0000     125.0000   -5425.0000  5.46044E+02  248.931  0.00000E+00  1.00000E+00  1.00001  6.1212  1.0003E-10  1.0003E-10  9.9508E-03  2.6805E-04  9.9931E-11  2.7708E-05  9.9972E-11  3.5263E-04  3.5292E-04                                                                                                                                                                                                                                                                                                                                                                                                                                                                                                                                                                                                            
     800.0000     125.0000   -5425.0000  5.46043E+02  248.931  0.00000E+00  1.00000E+00  1.00001  6.1212  1.0003E-10  1.0003E-10  9.9508E-03  2.6805E-04  9.9931E-11  2.7708E-05  9.9972E-11  3.5263E-04  3.5292E-04                                                                                                                                                                                                                                                                                                                                                                                                                                                                                                                                                                                                            
     935.0000     125.0000   -5425.0000  5.46036E+02  248.931  0.00000E+00  1.00000E+00  1.00001  6.1212  1.0003E-10  1.0003E-10  9.9507E-03  2.6805E-04  9.9931E-11  2.7708E-05  9.9972E-11  3.5263E-04  3.5292E-04                                                                                                                                                                                                                                                                                                                                                                                                                                                                                                                                                                                                            
    1185.0000     125.0000   -5425.0000  5.46021E+02  248.930  0.00000E+00  1.00000E+00  1.00001  6.1212  1.0003E-10  1.0003E-10  9.9506E-03  2.6805E-04  9.9931E-11  2.7708E-05  9.9972E-11  3.5263E-04  3.5292E-04                                                                                                                                                                                                                                                                                                                                                                                                                                                                                                                                                                                                            
    1435.0000     125.0000   -5425.0000  5.46010E+02  248.930  0.00000E+00  1.00000E+00  1.00001  6.1212  1.0003E-10  1.0003E-10  9.9506E-03  2.6805E-04  9.9932E-11  2.7708E-05  9.9973E-11  3.5263E-04  3.5292E-04                                                                                                                                                                                                                                                                                                                                                                                                                                                                                                                                                                                                            
     125.0000     125.0000   -5225.0000  5.29330E+02  238.136  0.00000E+00  1.00000E+00  1.00001  6.2508  1.0003E-10  1.0004E-10  5.6614E-03  2.7302E-04  1.0033E-10  2.9157E-05  1.0021E-10  3.4873E-04  3.4771E-04                                                                                                                                                                                                                                                                                                                                                                                                                                                                                                                                                                                                            
     375.0000     125.0000   -5225.0000  5.29329E+02  238.136  0.00000E+00  1.00000E+00  1.00001  6.2508  1.0003E-10  1.0004E-10  5.6615E-03  2.7302E-04  1.0033E-10  2.9157E-05  1.0021E-10  3.4873E-04  3.4771E-04                                                                                                                                                                                                                                                                                                                                                                                                                                                                                                                                                                                                            
     625.0000     125.0000   -5225.0000  5.29324E+02  238.137  0.00000E+00  1.00000E+00  1.00001  6.2507  1.0003E-10  1.0003E-10  5.6618E-03  2.7302E-04  1.0033E-10  2.9157E-05  1.0021E-10  3.4873E-04  3.4771E-04                                                                                                                                                                                                                                                                                                                                                                                                                                                                                                                                                                                                            
     760.0000     125.0000   -5225.0000  5.29317E+02  238.137  0.00000E+00  1.00000E+00  1.00001  6.2507  1.0003E-10  1.0003E-10  5.6617E-03  2.7302E-04  1.0033E-10  2.9157E-05  1.0021E-10  3.4873E-04  3.4771E-04                                                                                                                                                                                                                                                                                                                                                                                                                                                                                                                                                                                                            
     780.0000     125.0000   -5225.0000  5.29316E+02  238.137  0.00000E+00  1.00000E+00  1.00001  6.2507  1.0003E-10  1.0003E-10  5.6617E-03  2.7302E-04  1.0033E-10  2.9157E-05  1.0021E-10  3.4873E-04  3.4771E-04                                                                                                                                                                                                                                                                                                                                                                                                                                                                                                                                                                                                            
     800.0000     125.0000   -5225.0000  5.29315E+02  238.137  0.00000E+00  1.00000E+00  1.00001  6.2507  1.0003E-10  1.0004E-10  5.6617E-03  2.7302E-04  1.0033E-10  2.9157E-05  1.0021E-10  3.4873E-04  3.4771E-04                                                                                                                                                                                                                                                                                                                                                                                                                                                                                                                                                                                                            
     935.0000     125.0000   -5225.0000  5.29307E+02  238.136  0.00000E+00  1.00000E+00  1.00001  6.2508  1.0003E-10  1.0004E-10  5.6616E-03  2.7302E-04  1.0033E-10  2.9157E-05  1.0021E-10  3.4873E-04  3.4771E-04                                                                                                                                                                                                                                                                                                                                                                                                                                                                                                                                                                                                            
    1185.0000     125.0000   -5225.0000  5.29288E+02  238.137  0.00000E+00  1.00000E+00  1.00001  6.2507  1.0003E-10  1.0004E-10  5.6617E-03  2.7302E-04  1.0033E-10  2.9157E-05  1.0021E-10  3.4873E-04  3.4771E-04                                                                                                                                                                                                                                                                                                                                                                                                                                                                                                                                                                                                            
    1435.0000     125.0000   -5225.0000  5.29273E+02  238.138  0.00000E+00  1.00000E+00  1.00001  6.2507  1.0003E-10  1.0004E-10  5.6621E-03  2.7302E-04  1.0033E-10  2.9157E-05  1.0021E-10  3.4873E-04  3.4771E-04                                                                                                                                                                                                                                                                                                                                                                                                                                                                                                                                                                                                            
     125.0000     125.0000   -4975.0000  5.08177E+02  227.228  0.00000E+00  1.00000E+00  1.00001  6.3906  9.9978E-11  9.9979E-11  3.1843E-03  2.7584E-04  1.0010E-10  3.0545E-05  1.0005E-10  3.4297E-04  3.4250E-04                                                                                                                                                                                                                                                                                                                                                                                                                                                                                                                                                                                                            
     375.0000     125.0000   -4975.0000  5.08182E+02  227.225  0.00000E+00  1.00000E+00  1.00001  6.3907  9.9938E-11  9.9939E-11  3.1838E-03  2.7584E-04  1.0006E-10  3.0546E-05  1.0001E-10  3.4296E-04  3.4250E-04                                                                                                                                                                                                                                                                                                                                                                                                                                                                                                                                                                                                            
     625.0000     125.0000   -4975.0000  5.08180E+02  227.222  0.00000E+00  1.00000E+00  1.00001  6.3907  9.9855E-11  9.9856E-11  3.1832E-03  2.7584E-04  9.9972E-11  3.0547E-05  9.9921E-11  3.4296E-04  3.4250E-04                                                                                                                                                                                                                                                                                                                                                                                                                                                                                                                                                                                                            
     760.0000     125.0000   -4975.0000  5.08169E+02  227.220  0.00000E+00  1.00000E+00  1.00001  6.3907  9.9854E-11  9.9855E-11  3.1830E-03  2.7584E-04  9.9971E-11  3.0547E-05  9.9921E-11  3.4296E-04  3.4250E-04                                                                                                                                                                                                                                                                                                                                                                                                                                                                                                                                                                                                            
     780.0000     125.0000   -4975.0000  5.08168E+02  227.220  0.00000E+00  1.00000E+00  1.00001  6.3907  9.9852E-11  9.9853E-11  3.1830E-03  2.7584E-04  9.9975E-11  3.0547E-05  9.9924E-11  3.4296E-04  3.4250E-04                                                                                                                                                                                                                                                                                                                                                                                                                                                                                                                                                                                                            
     800.0000     125.0000   -4975.0000  5.08166E+02  227.225  0.00000E+00  1.00000E+00  1.00001  6.3907  9.9901E-11  9.9902E-11  3.1837E-03  2.7584E-04  1.0002E-10  3.0546E-05  9.9972E-11  3.4296E-04  3.4251E-04                                                                                                                                                                                                                                                                                                                                                                                                                                                                                                                                                                                                            
     935.0000     125.0000   -4975.0000  5.08153E+02  227.226  0.00000E+00  1.00000E+00  1.00001  6.3907  9.9928E-11  9.9930E-11  3.1839E-03  2.7584E-04  1.0005E-10  3.0546E-05  9.9999E-11  3.4296E-04  3.4251E-04                                                                                                                                                                                                                                                                                                                                                                                                                                                                                                                                                                                                            
    1185.0000     125.0000   -4975.0000  5.08118E+02  227.231  0.00000E+00  1.00000E+00  1.00001  6.3906  9.9980E-11  9.9981E-11  3.1847E-03  2.7584E-04  1.0010E-10  3.0545E-05  1.0005E-10  3.4297E-04  3.4251E-04                                                                                                                                                                                                                                                                                                                                                                                                                                                                                                                                                                                                            
    1435.0000     125.0000   -4975.0000  5.08085E+02  227.237  0.00000E+00  1.00000E+00  1.00001  6.3905  9.9992E-11  9.9993E-11  3.1858E-03  2.7583E-04  1.0012E-10  3.0544E-05  1.0006E-10  3.4298E-04  3.4251E-04                                                                                                                                                                                                                                                                                                                                                                                                                                                                                                                                                                                                            
     125.0000     125.0000   -4725.0000  4.86775E+02  215.794  0.00000E+00  1.00000E+00  1.00001  6.5472  9.6375E-11  9.6374E-11  1.7535E-03  2.7614E-04  9.6327E-11  3.1907E-05  9.6348E-11  3.3549E-04  3.3583E-04                                                                                                                                                                                                                                                                                                                                                                                                                                                                                                                                                                                                            
     375.0000     125.0000   -4725.0000  4.86793E+02  215.418  0.00000E+00  1.00000E+00  1.00001  6.5525  9.5311E-11  9.5310E-11  1.7200E-03  2.7616E-04  9.5213E-11  3.1956E-05  9.5256E-11  3.3513E-04  3.3565E-04                                                                                                                                                                                                                                                                                                                                                                                                                                                                                                                                                                                                            
     625.0000     125.0000   -4725.0000  4.86797E+02  214.767  0.00000E+00  1.00000E+00  1.00001  6.5617  9.3691E-11  9.3690E-11  1.6636E-03  2.7614E-04  9.3559E-11  3.2036E-05  9.3617E-11  3.3460E-04  3.3524E-04                                                                                                                                                                                                                                                                                                                                                                                                                                                                                                                                                                                                            
     760.0000     125.0000   -4725.0000  4.86782E+02  214.765  0.00000E+00  1.00000E+00  1.00001  6.5618  9.3693E-11  9.3692E-11  1.6634E-03  2.7614E-04  9.3569E-11  3.2036E-05  9.3627E-11  3.3459E-04  3.3524E-04                                                                                                                                                                                                                                                                                                                                                                                                                                                                                                                                                                                                            
     780.0000     125.0000   -4725.0000  4.86779E+02  214.753  0.00000E+00  1.00000E+00  1.00001  6.5619  9.3663E-11  9.3662E-11  1.6624E-03  2.7614E-04  9.3719E-11  3.2037E-05  9.3778E-11  3.3459E-04  3.3523E-04                                                                                                                                                                                                                                                                                                                                                                                                                                                                                                                                                                                                            
     800.0000     125.0000   -4725.0000  4.86776E+02  215.205  0.00000E+00  1.00000E+00  1.00001  6.5555  9.4537E-11  9.4536E-11  1.7013E-03  2.7616E-04  9.4558E-11  3.1983E-05  9.4611E-11  3.3491E-04  3.3555E-04                                                                                                                                                                                                                                                                                                                                                                                                                                                                                                                                                                                                            
     935.0000     125.0000   -4725.0000  4.86755E+02  215.450  0.00000E+00  1.00000E+00  1.00001  6.5521  9.5096E-11  9.5096E-11  1.7228E-03  2.7616E-04  9.5123E-11  3.1952E-05  9.5164E-11  3.3514E-04  3.3567E-04                                                                                                                                                                                                                                                                                                                                                                                                                                                                                                                                                                                                            
    1185.0000     125.0000   -4725.0000  4.86689E+02  215.908  0.00000E+00  1.00000E+00  1.00001  6.5456  9.6469E-11  9.6468E-11  1.7638E-03  2.7614E-04  9.6523E-11  3.1892E-05  9.6536E-11  3.3559E-04  3.3590E-04                                                                                                                                                                                                                                                                                                                                                                                                                                                                                                                                                                                                            