Title="TOUGHREACT V3.30-OMP: Aqueous Total & Species Concentrations in mol/kg h2o, Surface & Exchanged Species in mol/kg h2o, Dry blocks in mol/L medium"                                                                                                                                                                                                                                                                                                                                                                                                                                                                                                                                                                                                                                                                       
Variables= "X(m)"   "Y(m)"   "Z(m)"   "P(bar)"     "T(C)"   "SatGas"   "SatLiq"     "aH2O"       "pH"        "t_na+"        "t_cl-"      "t_hco3-"       "t_ca+2"      "t_so4-2"       "t_mg+2"       "t_ba+2"       "t_al+3"     "t_h4sio4"                                                                                                                                                                                                                                                                                                                                                                                                                                                                                                                                                                                    
Zone T= "1.90132744E+03 yr" I=      9J=     10K=     23F=Point 
     125.0000     125.0000   -5425.0000  5.47718E+02  259.239  0.00000E+00  1.00000E+00  1.00001  6.0054  1.0005E-10  1.0002E-10  1.6870E-02  2.6176E-04  9.7649E-11  2.6282E-05  9.8655E-11  3.5327E-04  3.6031E-04                                                                                                                                                                                                                                                                                                                                                                                                                                                                                                                                                                                                            
     375.0000     125.0000   -5425.0000  5.47718E+02  259.239  0.00000E+00  1.00000E+00  1.00001  6.0054  1.0005E-10  1.0002E-10  1.6871E-02  2.6176E-04  9.7648E-11  2.6282E-05  9.8654E-11  3.5327E-04  3.6031E-04                                                                                                                                                                                                                                                                                                                                                                                                                                                                                                                                                                                                            
     625.0000     125.0000   -5425.0000  5.47718E+02  259.240  0.00000E+00  1.00000E+00  1.00001  6.0054  1.0005E-10  1.0002E-10  1.6871E-02  2.6176E-04  9.7647E-11  2.6282E-05  9.8654E-11  3.5327E-04  3.6031E-04                                                                                                                                                                                                                                                                                                                                                                                                                                                                                                                                                                                                            
     760.0000     125.0000   -5425.0000  5.47718E+02  259.240  0.00000E+00  1.00000E+00  1.00001  6.0054  1.0005E-10  1.0002E-10  1.6871E-02  2.6176E-04  9.7648E-11  2.6282E-05  9.8654E-11  3.5327E-04  3.6031E-04                                                                                                                                                                                                                                                                                                                                                                                                                                                                                                                                                                                                            
     780.0000     125.0000   -5425.0000  5.47717E+02  259.240  0.00000E+00  1.00000E+00  1.00001  6.0054  1.0005E-10  1.0002E-10  1.6871E-02  2.6176E-04  9.7648E-11  2.6282E-05  9.8654E-11  3.5327E-04  3.6031E-04                                                                                                                                                                                                                                                                                                                                                                                                                                                                                                                                                                                                            
     800.0000     125.0000   -5425.0000  5.47717E+02  259.240  0.00000E+00  1.00000E+00  1.00001  6.0054  1.0005E-10  1.0002E-10  1.6871E-02  2.6176E-04  9.7648E-11  2.6282E-05  9.8654E-11  3.5327E-04  3.6031E-04                                                                                                                                                                                                                                                                                                                                                                                                                                                                                                                                                                                                            
     935.0000     125.0000   -5425.0000  5.47716E+02  259.240  0.00000E+00  1.00000E+00  1.00001  6.0054  1.0005E-10  1.0002E-10  1.6871E-02  2.6176E-04  9.7648E-11  2.6282E-05  9.8655E-11  3.5327E-04  3.6031E-04                                                                                                                                                                                                                                                                                                                                                                                                                                                                                                                                                                                                            
    1185.0000     125.0000   -5425.0000  5.47714E+02  259.239  0.00000E+00  1.00000E+00  1.00001  6.0054  1.0005E-10  1.0002E-10  1.6871E-02  2.6176E-04  9.7649E-11  2.6282E-05  9.8656E-11  3.5327E-04  3.6031E-04                                                                                                                                                                                                                                                                                                                                                                                                                                                                                                                                                                                                            
    1435.0000     125.0000   -5425.0000  5.47712E+02  259.240  0.00000E+00  1.00000E+00  1.00001  6.0054  1.0005E-10  1.0002E-10  1.6871E-02  2.6176E-04  9.7651E-11  2.6282E-05  9.8657E-11  3.5328E-04  3.6031E-04                                                                                                                                                                                                                                                                                                                                                                                                                                                                                                                                                                                                            
     125.0000     125.0000   -5225.0000  5.31094E+02  238.186  0.00000E+00  1.00000E+00  1.00001  6.2506  1.0003E-10  1.0005E-10  5.6766E-03  2.7245E-04  1.0172E-10  2.9095E-05  1.0101E-10  3.5126E-04  3.4561E-04                                                                                                                                                                                                                                                                                                                                                                                                                                                                                                                                                                                                            
     375.0000     125.0000   -5225.0000  5.31095E+02  238.185  0.00000E+00  1.00000E+00  1.00001  6.2506  1.0003E-10  1.0005E-10  5.6764E-03  2.7245E-04  1.0172E-10  2.9095E-05  1.0101E-10  3.5126E-04  3.4561E-04                                                                                                                                                                                                                                                                                                                                                                                                                                                                                                                                                                                                            
     625.0000     125.0000   -5225.0000  5.31096E+02  238.185  0.00000E+00  1.00000E+00  1.00001  6.2506  1.0003E-10  1.0004E-10  5.6764E-03  2.7245E-04  1.0171E-10  2.9095E-05  1.0101E-10  3.5126E-04  3.4561E-04                                                                                                                                                                                                                                                                                                                                                                                                                                                                                                                                                                                                            
     760.0000     125.0000   -5225.0000  5.31095E+02  238.186  0.00000E+00  1.00000E+00  1.00001  6.2506  1.0003E-10  1.0004E-10  5.6766E-03  2.7245E-04  1.0171E-10  2.9095E-05  1.0101E-10  3.5126E-04  3.4561E-04                                                                                                                                                                                                                                                                                                                                                                                                                                                                                                                                                                                                            
     780.0000     125.0000   -5225.0000  5.31095E+02  238.186  0.00000E+00  1.00000E+00  1.00001  6.2506  1.0003E-10  1.0004E-10  5.6766E-03  2.7245E-04  1.0171E-10  2.9095E-05  1.0101E-10  3.5126E-04  3.4561E-04                                                                                                                                                                                                                                                                                                                                                                                                                                                                                                                                                                                                            
     800.0000     125.0000   -5225.0000  5.31094E+02  238.186  0.00000E+00  1.00000E+00  1.00001  6.2506  1.0003E-10  1.0004E-10  5.6767E-03  2.7245E-04  1.0171E-10  2.9095E-05  1.0101E-10  3.5126E-04  3.4561E-04                                                                                                                                                                                                                                                                                                                                                                                                                                                                                                                                                                                                            
     935.0000     125.0000   -5225.0000  5.31093E+02  238.187  0.00000E+00  1.00000E+00  1.00001  6.2506  1.0003E-10  1.0005E-10  5.6769E-03  2.7245E-04  1.0172E-10  2.9095E-05  1.0101E-10  3.5126E-04  3.4561E-04                                                                                                                                                                                                                                                                                                                                                                                                                                                                                                                                                                                                            
    1185.0000     125.0000   -5225.0000  5.31090E+02  238.190  0.00000E+00  1.00000E+00  1.00001  6.2506  1.0003E-10  1.0005E-10  5.6779E-03  2.7245E-04  1.0172E-10  2.9095E-05  1.0101E-10  3.5126E-04  3.4561E-04                                                                                                                                                                                                                                                                                                                                                                                                                                                                                                                                                                                                            
    1435.0000     125.0000   -5225.0000  5.31088E+02  238.194  0.00000E+00  1.00000E+00  1.00001  6.2505  1.0003E-10  1.0005E-10  5.6789E-03  2.7245E-04  1.0172E-10  2.9094E-05  1.0101E-10  3.5126E-04  3.4561E-04                                                                                                                                                                                                                                                                                                                                                                                                                                                                                                                                                                                                            
     125.0000     125.0000   -4975.0000  5.09894E+02  227.265  0.00000E+00  1.00000E+00  1.00001  6.3904  9.9978E-11  9.9984E-11  3.1906E-03  2.7557E-04  1.0066E-10  3.0513E-05  1.0037E-10  3.4414E-04  3.4155E-04                                                                                                                                                                                                                                                                                                                                                                                                                                                                                                                                                                                                            
     375.0000     125.0000   -4975.0000  5.09897E+02  227.258  0.00000E+00  1.00000E+00  1.00001  6.3904  9.9937E-11  9.9943E-11  3.1895E-03  2.7557E-04  1.0062E-10  3.0514E-05  1.0033E-10  3.4413E-04  3.4155E-04                                                                                                                                                                                                                                                                                                                                                                                                                                                                                                                                                                                                            
     625.0000     125.0000   -4975.0000  5.09900E+02  227.251  0.00000E+00  1.00000E+00  1.00001  6.3905  9.9850E-11  9.9856E-11  3.1883E-03  2.7557E-04  1.0053E-10  3.0516E-05  1.0024E-10  3.4412E-04  3.4155E-04                                                                                                                                                                                                                                                                                                                                                                                                                                                                                                                                                                                                            
     760.0000     125.0000   -4975.0000  5.09898E+02  227.252  0.00000E+00  1.00000E+00  1.00001  6.3905  9.9850E-11  9.9856E-11  3.1884E-03  2.7557E-04  1.0053E-10  3.0515E-05  1.0024E-10  3.4412E-04  3.4155E-04                                                                                                                                                                                                                                                                                                                                                                                                                                                                                                                                                                                                            
     780.0000     125.0000   -4975.0000  5.09898E+02  227.252  0.00000E+00  1.00000E+00  1.00001  6.3905  9.9849E-11  9.9855E-11  3.1884E-03  2.7557E-04  1.0053E-10  3.0515E-05  1.0025E-10  3.4412E-04  3.4155E-04                                                                                                                                                                                                                                                                                                                                                                                                                                                                                                                                                                                                            
     800.0000     125.0000   -4975.0000  5.09897E+02  227.258  0.00000E+00  1.00000E+00  1.00001  6.3905  9.9896E-11  9.9902E-11  3.1894E-03  2.7557E-04  1.0058E-10  3.0515E-05  1.0029E-10  3.4412E-04  3.4155E-04                                                                                                                                                                                                                                                                                                                                                                                                                                                                                                                                                                                                            
     935.0000     125.0000   -4975.0000  5.09895E+02  227.262  0.00000E+00  1.00000E+00  1.00001  6.3904  9.9928E-11  9.9934E-11  3.1900E-03  2.7557E-04  1.0061E-10  3.0514E-05  1.0032E-10  3.4413E-04  3.4155E-04                                                                                                                                                                                                                                                                                                                                                                                                                                                                                                                                                                                                            
    1185.0000     125.0000   -4975.0000  5.09889E+02  227.274  0.00000E+00  1.00000E+00  1.00001  6.3903  9.9981E-11  9.9987E-11  3.1921E-03  2.7556E-04  1.0067E-10  3.0512E-05  1.0038E-10  3.4414E-04  3.4155E-04                                                                                                                                                                                                                                                                                                                                                                                                                                                                                                                                                                                                            
    1435.0000     125.0000   -4975.0000  5.09885E+02  227.286  0.00000E+00  1.00000E+00  1.00001  6.3901  9.9995E-11  1.0000E-10  3.1941E-03  2.7556E-04  1.0069E-10  3.0510E-05  1.0039E-10  3.4416E-04  3.4155E-04                                                                                                                                                                                                                                                                                                                                                                                                                                                                                                                                                                                                            
     125.0000     125.0000   -4725.0000  4.88424E+02  215.833  0.00000E+00  1.00000E+00  1.00001  6.5467  9.6433E-11  9.6433E-11  1.7571E-03  2.7605E-04  9.6551E-11  3.1892E-05  9.6499E-11  3.3592E-04  3.3551E-04                                                                                                                                                                                                                                                                                                                                                                                                                                                                                                                                                                                                            
     375.0000     125.0000   -4725.0000  4.88425E+02  215.424  0.00000E+00  1.00000E+00  1.00001  6.5525  9.5275E-11  9.5275E-11  1.7206E-03  2.7607E-04  9.5328E-11  3.1946E-05  9.5305E-11  3.3550E-04  3.3533E-04                                                                                                                                                                                                                                                                                                                                                                                                                                                                                                                                                                                                            
     625.0000     125.0000   -4725.0000  4.88427E+02  214.722  0.00000E+00  1.00000E+00  1.00001  6.5624  9.3526E-11  9.3526E-11  1.6598E-03  2.7606E-04  9.3523E-11  3.2033E-05  9.3525E-11  3.3489E-04  3.3493E-04                                                                                                                                                                                                                                                                                                                                                                                                                                                                                                                                                                                                            
     760.0000     125.0000   -4725.0000  4.88426E+02  214.688  0.00000E+00  1.00000E+00  1.00001  6.5629  9.3443E-11  9.3443E-11  1.6570E-03  2.7606E-04  9.3447E-11  3.2037E-05  9.3451E-11  3.3486E-04  3.3491E-04                                                                                                                                                                                                                                                                                                                                                                                                                                                                                                                                                                                                            
     780.0000     125.0000   -4725.0000  4.88425E+02  214.669  0.00000E+00  1.00000E+00  1.00001  6.5632  9.3416E-11  9.3416E-11  1.6553E-03  2.7606E-04  9.3594E-11  3.2040E-05  9.3598E-11  3.3484E-04  3.3490E-04                                                                                                                                                                                                                                                                                                                                                                                                                                                                                                                                                                                                            
     800.0000     125.0000   -4725.0000  4.88425E+02  215.208  0.00000E+00  1.00000E+00  1.00001  6.5555  9.4450E-11  9.4451E-11  1.7016E-03  2.7608E-04  9.4621E-11  3.1974E-05  9.4611E-11  3.3527E-04  3.3524E-04                                                                                                                                                                                                                                                                                                                                                                                                                                                                                                                                                                                                            
     935.0000     125.0000   -4725.0000  4.88423E+02  215.476  0.00000E+00  1.00000E+00  1.00001  6.5518  9.5114E-11  9.5114E-11  1.7251E-03  2.7607E-04  9.5296E-11  3.1939E-05  9.5269E-11  3.3555E-04  3.3536E-04                                                                                                                                                                                                                                                                                                                                                                                                                                                                                                                                                                                                            
    1185.0000     125.0000   -4725.0000  4.88420E+02  215.958  0.00000E+00  1.00000E+00  1.00001  6.5450  9.6552E-11  9.6553E-11  1.7684E-03  2.7605E-04  9.6776E-11  3.1876E-05  9.6716E-11  3.3603E-04  3.3558E-04                                                                                                                                                                                                                                                                                                                                                                                                                                                                                                                                                                                                            