Title="TOUGHREACT V3.30-OMP: Aqueous Total & Species Concentrations in mol/kg h2o, Surface & Exchanged Species in mol/kg h2o, Dry blocks in mol/L medium"                                                                                                                                                                                                                                                                                                                                                                                                                                                                                                                                                                                                                                                                       
Variables= "X(m)"   "Y(m)"   "Z(m)"   "P(bar)"     "T(C)"   "SatGas"   "SatLiq"     "aH2O"       "pH"        "t_na+"        "t_cl-"      "t_hco3-"       "t_ca+2"      "t_so4-2"       "t_mg+2"       "t_ba+2"       "t_al+3"     "t_h4sio4"                                                                                                                                                                                                                                                                                                                                                                                                                                                                                                                                                                                    
Zone T= "4.21460917E+02 yr" I=      9J=     10K=     23F=Point 
     125.0000     125.0000   -5425.0000  5.46965E+02  249.616  0.00000E+00  1.00000E+00  1.00001  6.1133  1.0003E-10  1.0003E-10  1.0310E-02  2.6767E-04  9.9824E-11  2.7615E-05  9.9911E-11  3.5274E-04  3.5335E-04                                                                                                                                                                                                                                                                                                                                                                                                                                                                                                                                                                                                            
     375.0000     125.0000   -5425.0000  5.46963E+02  249.616  0.00000E+00  1.00000E+00  1.00001  6.1133  1.0003E-10  1.0003E-10  1.0310E-02  2.6767E-04  9.9824E-11  2.7615E-05  9.9911E-11  3.5274E-04  3.5335E-04                                                                                                                                                                                                                                                                                                                                                                                                                                                                                                                                                                                                            
     625.0000     125.0000   -5425.0000  5.46957E+02  249.616  0.00000E+00  1.00000E+00  1.00001  6.1132  1.0003E-10  1.0003E-10  1.0310E-02  2.6767E-04  9.9824E-11  2.7615E-05  9.9910E-11  3.5274E-04  3.5335E-04                                                                                                                                                                                                                                                                                                                                                                                                                                                                                                                                                                                                            
     760.0000     125.0000   -5425.0000  5.46952E+02  249.616  0.00000E+00  1.00000E+00  1.00001  6.1132  1.0003E-10  1.0003E-10  1.0310E-02  2.6767E-04  9.9824E-11  2.7615E-05  9.9910E-11  3.5274E-04  3.5335E-04                                                                                                                                                                                                                                                                                                                                                                                                                                                                                                                                                                                                            
     780.0000     125.0000   -5425.0000  5.46951E+02  249.616  0.00000E+00  1.00000E+00  1.00001  6.1132  1.0003E-10  1.0003E-10  1.0310E-02  2.6767E-04  9.9824E-11  2.7615E-05  9.9910E-11  3.5274E-04  3.5335E-04                                                                                                                                                                                                                                                                                                                                                                                                                                                                                                                                                                                                            
     800.0000     125.0000   -5425.0000  5.46950E+02  249.616  0.00000E+00  1.00000E+00  1.00001  6.1132  1.0003E-10  1.0003E-10  1.0310E-02  2.6767E-04  9.9824E-11  2.7615E-05  9.9911E-11  3.5274E-04  3.5335E-04                                                                                                                                                                                                                                                                                                                                                                                                                                                                                                                                                                                                            
     935.0000     125.0000   -5425.0000  5.46944E+02  249.616  0.00000E+00  1.00000E+00  1.00001  6.1133  1.0003E-10  1.0003E-10  1.0310E-02  2.6767E-04  9.9824E-11  2.7615E-05  9.9911E-11  3.5274E-04  3.5335E-04                                                                                                                                                                                                                                                                                                                                                                                                                                                                                                                                                                                                            
    1185.0000     125.0000   -5425.0000  5.46931E+02  249.616  0.00000E+00  1.00000E+00  1.00001  6.1133  1.0003E-10  1.0003E-10  1.0310E-02  2.6767E-04  9.9824E-11  2.7615E-05  9.9911E-11  3.5274E-04  3.5335E-04                                                                                                                                                                                                                                                                                                                                                                                                                                                                                                                                                                                                            
    1435.0000     125.0000   -5425.0000  5.46921E+02  249.616  0.00000E+00  1.00000E+00  1.00001  6.1133  1.0003E-10  1.0003E-10  1.0310E-02  2.6767E-04  9.9825E-11  2.7615E-05  9.9912E-11  3.5274E-04  3.5335E-04                                                                                                                                                                                                                                                                                                                                                                                                                                                                                                                                                                                                            
     125.0000     125.0000   -5225.0000  5.30235E+02  238.143  0.00000E+00  1.00000E+00  1.00001  6.2507  1.0003E-10  1.0004E-10  5.6634E-03  2.7298E-04  1.0043E-10  2.9152E-05  1.0026E-10  3.4890E-04  3.4757E-04                                                                                                                                                                                                                                                                                                                                                                                                                                                                                                                                                                                                            
     375.0000     125.0000   -5225.0000  5.30234E+02  238.143  0.00000E+00  1.00000E+00  1.00001  6.2507  1.0003E-10  1.0004E-10  5.6635E-03  2.7298E-04  1.0043E-10  2.9152E-05  1.0026E-10  3.4890E-04  3.4757E-04                                                                                                                                                                                                                                                                                                                                                                                                                                                                                                                                                                                                            
     625.0000     125.0000   -5225.0000  5.30229E+02  238.144  0.00000E+00  1.00000E+00  1.00001  6.2507  1.0003E-10  1.0004E-10  5.6638E-03  2.7298E-04  1.0042E-10  2.9152E-05  1.0026E-10  3.4890E-04  3.4757E-04                                                                                                                                                                                                                                                                                                                                                                                                                                                                                                                                                                                                            
     760.0000     125.0000   -5225.0000  5.30223E+02  238.144  0.00000E+00  1.00000E+00  1.00001  6.2507  1.0003E-10  1.0004E-10  5.6638E-03  2.7298E-04  1.0042E-10  2.9152E-05  1.0026E-10  3.4890E-04  3.4757E-04                                                                                                                                                                                                                                                                                                                                                                                                                                                                                                                                                                                                            
     780.0000     125.0000   -5225.0000  5.30222E+02  238.144  0.00000E+00  1.00000E+00  1.00001  6.2507  1.0003E-10  1.0004E-10  5.6637E-03  2.7298E-04  1.0042E-10  2.9152E-05  1.0026E-10  3.4890E-04  3.4757E-04                                                                                                                                                                                                                                                                                                                                                                                                                                                                                                                                                                                                            
     800.0000     125.0000   -5225.0000  5.30221E+02  238.144  0.00000E+00  1.00000E+00  1.00001  6.2507  1.0003E-10  1.0004E-10  5.6637E-03  2.7298E-04  1.0042E-10  2.9152E-05  1.0026E-10  3.4890E-04  3.4757E-04                                                                                                                                                                                                                                                                                                                                                                                                                                                                                                                                                                                                            
     935.0000     125.0000   -5225.0000  5.30213E+02  238.143  0.00000E+00  1.00000E+00  1.00001  6.2507  1.0003E-10  1.0004E-10  5.6637E-03  2.7298E-04  1.0043E-10  2.9152E-05  1.0026E-10  3.4890E-04  3.4757E-04                                                                                                                                                                                                                                                                                                                                                                                                                                                                                                                                                                                                            
    1185.0000     125.0000   -5225.0000  5.30197E+02  238.144  0.00000E+00  1.00000E+00  1.00001  6.2507  1.0003E-10  1.0004E-10  5.6640E-03  2.7298E-04  1.0043E-10  2.9152E-05  1.0026E-10  3.4890E-04  3.4757E-04                                                                                                                                                                                                                                                                                                                                                                                                                                                                                                                                                                                                            
    1435.0000     125.0000   -5225.0000  5.30184E+02  238.146  0.00000E+00  1.00000E+00  1.00001  6.2507  1.0003E-10  1.0004E-10  5.6645E-03  2.7298E-04  1.0043E-10  2.9152E-05  1.0026E-10  3.4890E-04  3.4757E-04                                                                                                                                                                                                                                                                                                                                                                                                                                                                                                                                                                                                            
     125.0000     125.0000   -4975.0000  5.09053E+02  227.234  0.00000E+00  1.00000E+00  1.00001  6.3906  9.9978E-11  9.9979E-11  3.1852E-03  2.7582E-04  1.0014E-10  3.0543E-05  1.0007E-10  3.4305E-04  3.4244E-04                                                                                                                                                                                                                                                                                                                                                                                                                                                                                                                                                                                                            
     375.0000     125.0000   -4975.0000  5.09056E+02  227.229  0.00000E+00  1.00000E+00  1.00001  6.3906  9.9937E-11  9.9938E-11  3.1845E-03  2.7582E-04  1.0009E-10  3.0544E-05  1.0003E-10  3.4304E-04  3.4244E-04                                                                                                                                                                                                                                                                                                                                                                                                                                                                                                                                                                                                            
     625.0000     125.0000   -4975.0000  5.09054E+02  227.225  0.00000E+00  1.00000E+00  1.00001  6.3907  9.9851E-11  9.9852E-11  3.1837E-03  2.7582E-04  1.0000E-10  3.0545E-05  9.9939E-11  3.4303E-04  3.4244E-04                                                                                                                                                                                                                                                                                                                                                                                                                                                                                                                                                                                                            
     760.0000     125.0000   -4975.0000  5.09044E+02  227.224  0.00000E+00  1.00000E+00  1.00001  6.3907  9.9851E-11  9.9852E-11  3.1836E-03  2.7582E-04  1.0000E-10  3.0545E-05  9.9939E-11  3.4303E-04  3.4244E-04                                                                                                                                                                                                                                                                                                                                                                                                                                                                                                                                                                                                            
     780.0000     125.0000   -4975.0000  5.09043E+02  227.224  0.00000E+00  1.00000E+00  1.00001  6.3907  9.9849E-11  9.9850E-11  3.1836E-03  2.7582E-04  1.0001E-10  3.0545E-05  9.9943E-11  3.4303E-04  3.4244E-04                                                                                                                                                                                                                                                                                                                                                                                                                                                                                                                                                                                                            
     800.0000     125.0000   -4975.0000  5.09041E+02  227.229  0.00000E+00  1.00000E+00  1.00001  6.3906  9.9899E-11  9.9900E-11  3.1845E-03  2.7582E-04  1.0006E-10  3.0544E-05  9.9991E-11  3.4304E-04  3.4244E-04                                                                                                                                                                                                                                                                                                                                                                                                                                                                                                                                                                                                            
     935.0000     125.0000   -4975.0000  5.09030E+02  227.231  0.00000E+00  1.00000E+00  1.00001  6.3906  9.9927E-11  9.9929E-11  3.1847E-03  2.7582E-04  1.0009E-10  3.0544E-05  1.0002E-10  3.4304E-04  3.4244E-04                                                                                                                                                                                                                                                                                                                                                                                                                                                                                                                                                                                                            
    1185.0000     125.0000   -4975.0000  5.08999E+02  227.237  0.00000E+00  1.00000E+00  1.00001  6.3905  9.9980E-11  9.9981E-11  3.1859E-03  2.7582E-04  1.0014E-10  3.0542E-05  1.0007E-10  3.4305E-04  3.4244E-04                                                                                                                                                                                                                                                                                                                                                                                                                                                                                                                                                                                                            
    1435.0000     125.0000   -4975.0000  5.08972E+02  227.245  0.00000E+00  1.00000E+00  1.00001  6.3904  9.9993E-11  9.9994E-11  3.1871E-03  2.7581E-04  1.0015E-10  3.0541E-05  1.0009E-10  3.4306E-04  3.4245E-04                                                                                                                                                                                                                                                                                                                                                                                                                                                                                                                                                                                                            
     125.0000     125.0000   -4725.0000  4.87607E+02  215.797  0.00000E+00  1.00000E+00  1.00001  6.5472  9.6370E-11  9.6370E-11  1.7538E-03  2.7614E-04  9.6333E-11  3.1906E-05  9.6349E-11  3.3552E-04  3.3581E-04                                                                                                                                                                                                                                                                                                                                                                                                                                                                                                                                                                                                            
     375.0000     125.0000   -4725.0000  4.87619E+02  215.398  0.00000E+00  1.00000E+00  1.00001  6.5528  9.5238E-11  9.5238E-11  1.7182E-03  2.7615E-04  9.5148E-11  3.1958E-05  9.5187E-11  3.3513E-04  3.3562E-04                                                                                                                                                                                                                                                                                                                                                                                                                                                                                                                                                                                                            
     625.0000     125.0000   -4725.0000  4.87619E+02  214.725  0.00000E+00  1.00000E+00  1.00001  6.5623  9.3567E-11  9.3566E-11  1.6601E-03  2.7613E-04  9.3439E-11  3.2040E-05  9.3495E-11  3.3458E-04  3.3520E-04                                                                                                                                                                                                                                                                                                                                                                                                                                                                                                                                                                                                            
     760.0000     125.0000   -4725.0000  4.87606E+02  214.714  0.00000E+00  1.00000E+00  1.00001  6.5625  9.3545E-11  9.3545E-11  1.6591E-03  2.7614E-04  9.3424E-11  3.2042E-05  9.3481E-11  3.3456E-04  3.3520E-04                                                                                                                                                                                                                                                                                                                                                                                                                                                                                                                                                                                                            
     780.0000     125.0000   -4725.0000  4.87604E+02  214.700  0.00000E+00  1.00000E+00  1.00001  6.5627  9.3511E-11  9.3510E-11  1.6579E-03  2.7614E-04  9.3573E-11  3.2044E-05  9.3631E-11  3.3455E-04  3.3519E-04                                                                                                                                                                                                                                                                                                                                                                                                                                                                                                                                                                                                            
     800.0000     125.0000   -4725.0000  4.87601E+02  215.186  0.00000E+00  1.00000E+00  1.00001  6.5558  9.4461E-11  9.4461E-11  1.6997E-03  2.7616E-04  9.4491E-11  3.1985E-05  9.4542E-11  3.3491E-04  3.3552E-04                                                                                                                                                                                                                                                                                                                                                                                                                                                                                                                                                                                                            
     935.0000     125.0000   -4725.0000  4.87583E+02  215.441  0.00000E+00  1.00000E+00  1.00001  6.5522  9.5052E-11  9.5051E-11  1.7220E-03  2.7616E-04  9.5089E-11  3.1952E-05  9.5126E-11  3.3516E-04  3.3565E-04                                                                                                                                                                                                                                                                                                                                                                                                                                                                                                                                                                                                            
    1185.0000     125.0000   -4725.0000  4.87526E+02  215.914  0.00000E+00  1.00000E+00  1.00001  6.5455  9.6471E-11  9.6471E-11  1.7644E-03  2.7613E-04  9.6536E-11  3.1890E-05  9.6545E-11  3.3562E-04  3.3588E-04                                                                                                                                                                                                                                                                                                                                                                                                                                                                                                                                                                                                            