Title="TOUGHREACT V3.30-OMP: Aqueous Total & Species Concentrations in mol/kg h2o, Surface & Exchanged Species in mol/kg h2o, Dry blocks in mol/L medium"                                                                                                                                                                                                                                                                                                                                                                                                                                                                                                                                                                                                                                                                       
Variables= "X(m)"   "Y(m)"   "Z(m)"   "P(bar)"     "T(C)"   "SatGas"   "SatLiq"     "aH2O"       "pH"        "t_na+"        "t_cl-"      "t_hco3-"       "t_ca+2"      "t_so4-2"       "t_mg+2"       "t_ba+2"       "t_al+3"     "t_h4sio4"                                                                                                                                                                                                                                                                                                                                                                                                                                                                                                                                                                                    
Zone T= "1.58443954E-09 yr" I=      9J=     10K=     23F=Point 
     125.0000     125.0000   -5425.0000  5.18687E+02  246.737  0.00000E+00  1.00000E+00  1.00001  6.1468  9.9970E-11  9.9970E-11  8.8804E-03  2.6924E-04  9.9969E-11  2.8010E-05  9.9970E-11  3.5189E-04  3.5189E-04                                                                                                                                                                                                                                                                                                                                                                                                                                                                                                                                                                                                            
     375.0000     125.0000   -5425.0000  5.18687E+02  246.737  0.00000E+00  1.00000E+00  1.00001  6.1468  9.9970E-11  9.9970E-11  8.8804E-03  2.6924E-04  9.9969E-11  2.8010E-05  9.9970E-11  3.5189E-04  3.5189E-04                                                                                                                                                                                                                                                                                                                                                                                                                                                                                                                                                                                                            
     625.0000     125.0000   -5425.0000  5.18687E+02  246.737  0.00000E+00  1.00000E+00  1.00001  6.1468  9.9970E-11  9.9970E-11  8.8804E-03  2.6924E-04  9.9969E-11  2.8010E-05  9.9970E-11  3.5189E-04  3.5189E-04                                                                                                                                                                                                                                                                                                                                                                                                                                                                                                                                                                                                            
     760.0000     125.0000   -5425.0000  5.18687E+02  246.737  0.00000E+00  1.00000E+00  1.00001  6.1468  9.9970E-11  9.9970E-11  8.8804E-03  2.6924E-04  9.9969E-11  2.8010E-05  9.9970E-11  3.5189E-04  3.5189E-04                                                                                                                                                                                                                                                                                                                                                                                                                                                                                                                                                                                                            
     780.0000     125.0000   -5425.0000  5.18687E+02  246.737  0.00000E+00  1.00000E+00  1.00001  6.1468  9.9970E-11  9.9970E-11  8.8804E-03  2.6924E-04  9.9969E-11  2.8010E-05  9.9970E-11  3.5189E-04  3.5189E-04                                                                                                                                                                                                                                                                                                                                                                                                                                                                                                                                                                                                            
     800.0000     125.0000   -5425.0000  5.18687E+02  246.737  0.00000E+00  1.00000E+00  1.00001  6.1468  9.9970E-11  9.9970E-11  8.8804E-03  2.6924E-04  9.9969E-11  2.8010E-05  9.9970E-11  3.5189E-04  3.5189E-04                                                                                                                                                                                                                                                                                                                                                                                                                                                                                                                                                                                                            
     935.0000     125.0000   -5425.0000  5.18687E+02  246.737  0.00000E+00  1.00000E+00  1.00001  6.1468  9.9970E-11  9.9970E-11  8.8804E-03  2.6924E-04  9.9969E-11  2.8010E-05  9.9970E-11  3.5189E-04  3.5189E-04                                                                                                                                                                                                                                                                                                                                                                                                                                                                                                                                                                                                            
    1185.0000     125.0000   -5425.0000  5.18687E+02  246.737  0.00000E+00  1.00000E+00  1.00001  6.1468  9.9970E-11  9.9970E-11  8.8804E-03  2.6924E-04  9.9969E-11  2.8010E-05  9.9970E-11  3.5189E-04  3.5189E-04                                                                                                                                                                                                                                                                                                                                                                                                                                                                                                                                                                                                            
    1435.0000     125.0000   -5425.0000  5.18687E+02  246.737  0.00000E+00  1.00000E+00  1.00001  6.1468  9.9970E-11  9.9970E-11  8.8804E-03  2.6924E-04  9.9969E-11  2.8010E-05  9.9970E-11  3.5189E-04  3.5189E-04                                                                                                                                                                                                                                                                                                                                                                                                                                                                                                                                                                                                            
     125.0000     125.0000   -5225.0000  4.99185E+02  238.038  0.00000E+00  1.00000E+00  1.00001  6.2519  9.9982E-11  9.9982E-11  5.6321E-03  2.7317E-04  9.9981E-11  2.9181E-05  9.9982E-11  3.4813E-04  3.4813E-04                                                                                                                                                                                                                                                                                                                                                                                                                                                                                                                                                                                                            
     375.0000     125.0000   -5225.0000  4.99185E+02  238.038  0.00000E+00  1.00000E+00  1.00001  6.2519  9.9982E-11  9.9982E-11  5.6321E-03  2.7317E-04  9.9981E-11  2.9181E-05  9.9982E-11  3.4813E-04  3.4813E-04                                                                                                                                                                                                                                                                                                                                                                                                                                                                                                                                                                                                            
     625.0000     125.0000   -5225.0000  4.99185E+02  238.038  0.00000E+00  1.00000E+00  1.00001  6.2519  9.9982E-11  9.9982E-11  5.6321E-03  2.7317E-04  9.9981E-11  2.9181E-05  9.9982E-11  3.4813E-04  3.4813E-04                                                                                                                                                                                                                                                                                                                                                                                                                                                                                                                                                                                                            
     760.0000     125.0000   -5225.0000  4.99185E+02  238.038  0.00000E+00  1.00000E+00  1.00001  6.2519  9.9982E-11  9.9982E-11  5.6321E-03  2.7317E-04  9.9981E-11  2.9181E-05  9.9982E-11  3.4813E-04  3.4813E-04                                                                                                                                                                                                                                                                                                                                                                                                                                                                                                                                                                                                            
     780.0000     125.0000   -5225.0000  4.99185E+02  238.038  0.00000E+00  1.00000E+00  1.00001  6.2519  9.9982E-11  9.9982E-11  5.6321E-03  2.7317E-04  9.9981E-11  2.9181E-05  9.9982E-11  3.4813E-04  3.4813E-04                                                                                                                                                                                                                                                                                                                                                                                                                                                                                                                                                                                                            
     800.0000     125.0000   -5225.0000  4.99185E+02  238.038  0.00000E+00  1.00000E+00  1.00001  6.2519  9.9982E-11  9.9982E-11  5.6321E-03  2.7317E-04  9.9981E-11  2.9181E-05  9.9982E-11  3.4813E-04  3.4813E-04                                                                                                                                                                                                                                                                                                                                                                                                                                                                                                                                                                                                            
     935.0000     125.0000   -5225.0000  4.99185E+02  238.038  0.00000E+00  1.00000E+00  1.00001  6.2519  9.9982E-11  9.9982E-11  5.6321E-03  2.7317E-04  9.9981E-11  2.9181E-05  9.9982E-11  3.4813E-04  3.4813E-04                                                                                                                                                                                                                                                                                                                                                                                                                                                                                                                                                                                                            
    1185.0000     125.0000   -5225.0000  4.99185E+02  238.038  0.00000E+00  1.00000E+00  1.00001  6.2519  9.9982E-11  9.9982E-11  5.6321E-03  2.7317E-04  9.9981E-11  2.9181E-05  9.9982E-11  3.4813E-04  3.4813E-04                                                                                                                                                                                                                                                                                                                                                                                                                                                                                                                                                                                                            
    1435.0000     125.0000   -5225.0000  4.99185E+02  238.038  0.00000E+00  1.00000E+00  1.00001  6.2519  9.9982E-11  9.9982E-11  5.6321E-03  2.7317E-04  9.9981E-11  2.9181E-05  9.9982E-11  3.4813E-04  3.4813E-04                                                                                                                                                                                                                                                                                                                                                                                                                                                                                                                                                                                                            
     125.0000     125.0000   -4975.0000  4.74807E+02  227.163  0.00000E+00  1.00000E+00  1.00001  6.3915  9.9991E-11  9.9991E-11  3.1733E-03  2.7590E-04  9.9990E-11  3.0559E-05  9.9990E-11  3.4268E-04  3.4268E-04                                                                                                                                                                                                                                                                                                                                                                                                                                                                                                                                                                                                            
     375.0000     125.0000   -4975.0000  4.74807E+02  227.163  0.00000E+00  1.00000E+00  1.00001  6.3915  9.9991E-11  9.9991E-11  3.1733E-03  2.7590E-04  9.9990E-11  3.0559E-05  9.9990E-11  3.4268E-04  3.4268E-04                                                                                                                                                                                                                                                                                                                                                                                                                                                                                                                                                                                                            
     625.0000     125.0000   -4975.0000  4.74807E+02  227.163  0.00000E+00  1.00000E+00  1.00001  6.3915  9.9991E-11  9.9991E-11  3.1733E-03  2.7590E-04  9.9990E-11  3.0559E-05  9.9990E-11  3.4268E-04  3.4268E-04                                                                                                                                                                                                                                                                                                                                                                                                                                                                                                                                                                                                            
     760.0000     125.0000   -4975.0000  4.74807E+02  227.163  0.00000E+00  1.00000E+00  1.00001  6.3915  9.9991E-11  9.9991E-11  3.1733E-03  2.7590E-04  9.9990E-11  3.0559E-05  9.9990E-11  3.4268E-04  3.4268E-04                                                                                                                                                                                                                                                                                                                                                                                                                                                                                                                                                                                                            
     780.0000     125.0000   -4975.0000  4.74807E+02  227.163  0.00000E+00  1.00000E+00  1.00001  6.3915  9.9991E-11  9.9991E-11  3.1733E-03  2.7590E-04  9.9990E-11  3.0559E-05  9.9990E-11  3.4268E-04  3.4268E-04                                                                                                                                                                                                                                                                                                                                                                                                                                                                                                                                                                                                            
     800.0000     125.0000   -4975.0000  4.74807E+02  227.163  0.00000E+00  1.00000E+00  1.00001  6.3915  9.9991E-11  9.9991E-11  3.1733E-03  2.7590E-04  9.9990E-11  3.0559E-05  9.9990E-11  3.4268E-04  3.4268E-04                                                                                                                                                                                                                                                                                                                                                                                                                                                                                                                                                                                                            
     935.0000     125.0000   -4975.0000  4.74807E+02  227.163  0.00000E+00  1.00000E+00  1.00001  6.3915  9.9991E-11  9.9991E-11  3.1733E-03  2.7590E-04  9.9990E-11  3.0559E-05  9.9990E-11  3.4268E-04  3.4268E-04                                                                                                                                                                                                                                                                                                                                                                                                                                                                                                                                                                                                            
    1185.0000     125.0000   -4975.0000  4.74807E+02  227.163  0.00000E+00  1.00000E+00  1.00001  6.3915  9.9991E-11  9.9991E-11  3.1733E-03  2.7590E-04  9.9990E-11  3.0559E-05  9.9990E-11  3.4268E-04  3.4268E-04                                                                                                                                                                                                                                                                                                                                                                                                                                                                                                                                                                                                            
    1435.0000     125.0000   -4975.0000  4.74807E+02  227.163  0.00000E+00  1.00000E+00  1.00001  6.3915  9.9991E-11  9.9991E-11  3.1733E-03  2.7590E-04  9.9990E-11  3.0559E-05  9.9990E-11  3.4268E-04  3.4268E-04                                                                                                                                                                                                                                                                                                                                                                                                                                                                                                                                                                                                            
     125.0000     125.0000   -4725.0000  4.50430E+02  216.287  0.00000E+00  1.00000E+00  1.00001  6.5403  9.9996E-11  9.9996E-11  1.7985E-03  2.7612E-04  9.9995E-11  3.1843E-05  9.9995E-11  3.3601E-04  3.3602E-04                                                                                                                                                                                                                                                                                                                                                                                                                                                                                                                                                                                                            
     375.0000     125.0000   -4725.0000  4.50430E+02  216.287  0.00000E+00  1.00000E+00  1.00001  6.5403  9.9996E-11  9.9996E-11  1.7985E-03  2.7612E-04  9.9995E-11  3.1843E-05  9.9995E-11  3.3601E-04  3.3602E-04                                                                                                                                                                                                                                                                                                                                                                                                                                                                                                                                                                                                            
     625.0000     125.0000   -4725.0000  4.50430E+02  216.287  0.00000E+00  1.00000E+00  1.00001  6.5403  9.9996E-11  9.9996E-11  1.7985E-03  2.7612E-04  9.9995E-11  3.1843E-05  9.9995E-11  3.3601E-04  3.3602E-04                                                                                                                                                                                                                                                                                                                                                                                                                                                                                                                                                                                                            
     760.0000     125.0000   -4725.0000  4.50430E+02  216.287  0.00000E+00  1.00000E+00  1.00001  6.5403  9.9996E-11  9.9996E-11  1.7985E-03  2.7612E-04  9.9995E-11  3.1843E-05  9.9995E-11  3.3601E-04  3.3602E-04                                                                                                                                                                                                                                                                                                                                                                                                                                                                                                                                                                                                            
     780.0000     125.0000   -4725.0000  4.50430E+02  216.287  0.00000E+00  1.00000E+00  1.00001  6.5403  9.9996E-11  9.9996E-11  1.7985E-03  2.7612E-04  9.9995E-11  3.1843E-05  9.9995E-11  3.3601E-04  3.3602E-04                                                                                                                                                                                                                                                                                                                                                                                                                                                                                                                                                                                                            
     800.0000     125.0000   -4725.0000  4.50430E+02  216.287  0.00000E+00  1.00000E+00  1.00001  6.5403  9.9996E-11  9.9996E-11  1.7985E-03  2.7612E-04  9.9995E-11  3.1843E-05  9.9995E-11  3.3601E-04  3.3602E-04                                                                                                                                                                                                                                                                                                                                                                                                                                                                                                                                                                                                            
     935.0000     125.0000   -4725.0000  4.50430E+02  216.287  0.00000E+00  1.00000E+00  1.00001  6.5403  9.9996E-11  9.9996E-11  1.7985E-03  2.7612E-04  9.9995E-11  3.1843E-05  9.9995E-11  3.3601E-04  3.3602E-04                                                                                                                                                                                                                                                                                                                                                                                                                                                                                                                                                                                                            
    1185.0000     125.0000   -4725.0000  4.50430E+02  216.287  0.00000E+00  1.00000E+00  1.00001  6.5403  9.9996E-11  9.9996E-11  1.7985E-03  2.7612E-04  9.9995E-11  3.1843E-05  9.9995E-11  3.3601E-04  3.3602E-04                                                                                                                                                                                                                                                                                                                                                                                                                                                                                                                                                                                                            