Title="TOUGHREACT V3.30-OMP: Aqueous Total & Species Concentrations in mol/kg h2o, Surface & Exchanged Species in mol/kg h2o, Dry blocks in mol/L medium"                                                                                                                                                                                                                                                                                                                                                                                                                                                                                                                                                                                                                                                                       
Variables= "X(m)"   "Y(m)"   "Z(m)"   "P(bar)"     "T(C)"   "SatGas"   "SatLiq"     "aH2O"       "pH"        "t_na+"        "t_cl-"      "t_hco3-"       "t_ca+2"      "t_so4-2"       "t_mg+2"       "t_ba+2"       "t_al+3"     "t_h4sio4"                                                                                                                                                                                                                                                                                                                                                                                                                                                                                                                                                                                    
Zone T= "1.05523673E+03 yr" I=      9J=     10K=     23F=Point 
     125.0000     125.0000   -5425.0000  5.47800E+02  253.739  0.00000E+00  1.00000E+00  1.00001  6.0662  1.0004E-10  1.0003E-10  1.2748E-02  2.6529E-04  9.9059E-11  2.7049E-05  9.9469E-11  3.5319E-04  3.5610E-04                                                                                                                                                                                                                                                                                                                                                                                                                                                                                                                                                                                                            
     375.0000     125.0000   -5425.0000  5.47800E+02  253.739  0.00000E+00  1.00000E+00  1.00001  6.0662  1.0004E-10  1.0003E-10  1.2748E-02  2.6529E-04  9.9058E-11  2.7049E-05  9.9469E-11  3.5319E-04  3.5610E-04                                                                                                                                                                                                                                                                                                                                                                                                                                                                                                                                                                                                            
     625.0000     125.0000   -5425.0000  5.47799E+02  253.740  0.00000E+00  1.00000E+00  1.00001  6.0662  1.0004E-10  1.0003E-10  1.2749E-02  2.6529E-04  9.9058E-11  2.7049E-05  9.9469E-11  3.5319E-04  3.5610E-04                                                                                                                                                                                                                                                                                                                                                                                                                                                                                                                                                                                                            
     760.0000     125.0000   -5425.0000  5.47797E+02  253.740  0.00000E+00  1.00000E+00  1.00001  6.0662  1.0004E-10  1.0003E-10  1.2748E-02  2.6529E-04  9.9058E-11  2.7049E-05  9.9469E-11  3.5319E-04  3.5610E-04                                                                                                                                                                                                                                                                                                                                                                                                                                                                                                                                                                                                            
     780.0000     125.0000   -5425.0000  5.47797E+02  253.740  0.00000E+00  1.00000E+00  1.00001  6.0662  1.0004E-10  1.0003E-10  1.2748E-02  2.6529E-04  9.9058E-11  2.7049E-05  9.9469E-11  3.5319E-04  3.5610E-04                                                                                                                                                                                                                                                                                                                                                                                                                                                                                                                                                                                                            
     800.0000     125.0000   -5425.0000  5.47797E+02  253.740  0.00000E+00  1.00000E+00  1.00001  6.0662  1.0004E-10  1.0003E-10  1.2748E-02  2.6529E-04  9.9058E-11  2.7049E-05  9.9469E-11  3.5319E-04  3.5610E-04                                                                                                                                                                                                                                                                                                                                                                                                                                                                                                                                                                                                            
     935.0000     125.0000   -5425.0000  5.47795E+02  253.739  0.00000E+00  1.00000E+00  1.00001  6.0662  1.0004E-10  1.0003E-10  1.2748E-02  2.6529E-04  9.9058E-11  2.7049E-05  9.9469E-11  3.5319E-04  3.5610E-04                                                                                                                                                                                                                                                                                                                                                                                                                                                                                                                                                                                                            
    1185.0000     125.0000   -5425.0000  5.47790E+02  253.739  0.00000E+00  1.00000E+00  1.00001  6.0662  1.0004E-10  1.0003E-10  1.2748E-02  2.6529E-04  9.9059E-11  2.7049E-05  9.9470E-11  3.5319E-04  3.5610E-04                                                                                                                                                                                                                                                                                                                                                                                                                                                                                                                                                                                                            
    1435.0000     125.0000   -5425.0000  5.47787E+02  253.739  0.00000E+00  1.00000E+00  1.00001  6.0662  1.0004E-10  1.0003E-10  1.2748E-02  2.6529E-04  9.9061E-11  2.7049E-05  9.9471E-11  3.5319E-04  3.5610E-04                                                                                                                                                                                                                                                                                                                                                                                                                                                                                                                                                                                                            
     125.0000     125.0000   -5225.0000  5.31112E+02  238.161  0.00000E+00  1.00000E+00  1.00001  6.2507  1.0003E-10  1.0004E-10  5.6690E-03  2.7275E-04  1.0098E-10  2.9128E-05  1.0058E-10  3.4991E-04  3.4672E-04                                                                                                                                                                                                                                                                                                                                                                                                                                                                                                                                                                                                            
     375.0000     125.0000   -5225.0000  5.31112E+02  238.161  0.00000E+00  1.00000E+00  1.00001  6.2507  1.0003E-10  1.0004E-10  5.6690E-03  2.7275E-04  1.0098E-10  2.9128E-05  1.0058E-10  3.4991E-04  3.4672E-04                                                                                                                                                                                                                                                                                                                                                                                                                                                                                                                                                                                                            
     625.0000     125.0000   -5225.0000  5.31112E+02  238.162  0.00000E+00  1.00000E+00  1.00001  6.2507  1.0003E-10  1.0004E-10  5.6692E-03  2.7275E-04  1.0098E-10  2.9127E-05  1.0058E-10  3.4991E-04  3.4672E-04                                                                                                                                                                                                                                                                                                                                                                                                                                                                                                                                                                                                            
     760.0000     125.0000   -5225.0000  5.31110E+02  238.162  0.00000E+00  1.00000E+00  1.00001  6.2507  1.0003E-10  1.0004E-10  5.6693E-03  2.7275E-04  1.0098E-10  2.9127E-05  1.0058E-10  3.4991E-04  3.4672E-04                                                                                                                                                                                                                                                                                                                                                                                                                                                                                                                                                                                                            
     780.0000     125.0000   -5225.0000  5.31109E+02  238.162  0.00000E+00  1.00000E+00  1.00001  6.2507  1.0003E-10  1.0004E-10  5.6693E-03  2.7275E-04  1.0098E-10  2.9127E-05  1.0058E-10  3.4991E-04  3.4672E-04                                                                                                                                                                                                                                                                                                                                                                                                                                                                                                                                                                                                            
     800.0000     125.0000   -5225.0000  5.31109E+02  238.162  0.00000E+00  1.00000E+00  1.00001  6.2507  1.0003E-10  1.0004E-10  5.6693E-03  2.7275E-04  1.0098E-10  2.9127E-05  1.0058E-10  3.4991E-04  3.4672E-04                                                                                                                                                                                                                                                                                                                                                                                                                                                                                                                                                                                                            
     935.0000     125.0000   -5225.0000  5.31107E+02  238.162  0.00000E+00  1.00000E+00  1.00001  6.2507  1.0003E-10  1.0004E-10  5.6694E-03  2.7275E-04  1.0098E-10  2.9127E-05  1.0058E-10  3.4991E-04  3.4673E-04                                                                                                                                                                                                                                                                                                                                                                                                                                                                                                                                                                                                            
    1185.0000     125.0000   -5225.0000  5.31101E+02  238.165  0.00000E+00  1.00000E+00  1.00001  6.2506  1.0003E-10  1.0004E-10  5.6701E-03  2.7275E-04  1.0098E-10  2.9127E-05  1.0058E-10  3.4991E-04  3.4673E-04                                                                                                                                                                                                                                                                                                                                                                                                                                                                                                                                                                                                            
    1435.0000     125.0000   -5225.0000  5.31097E+02  238.167  0.00000E+00  1.00000E+00  1.00001  6.2506  1.0003E-10  1.0004E-10  5.6710E-03  2.7275E-04  1.0098E-10  2.9127E-05  1.0058E-10  3.4991E-04  3.4673E-04                                                                                                                                                                                                                                                                                                                                                                                                                                                                                                                                                                                                            
     125.0000     125.0000   -4975.0000  5.09912E+02  227.249  0.00000E+00  1.00000E+00  1.00001  6.3905  9.9978E-11  9.9981E-11  3.1878E-03  2.7571E-04  1.0036E-10  3.0530E-05  1.0020E-10  3.4351E-04  3.4206E-04                                                                                                                                                                                                                                                                                                                                                                                                                                                                                                                                                                                                            
     375.0000     125.0000   -4975.0000  5.09915E+02  227.244  0.00000E+00  1.00000E+00  1.00001  6.3905  9.9937E-11  9.9940E-11  3.1870E-03  2.7571E-04  1.0032E-10  3.0531E-05  1.0016E-10  3.4351E-04  3.4206E-04                                                                                                                                                                                                                                                                                                                                                                                                                                                                                                                                                                                                            
     625.0000     125.0000   -4975.0000  5.09916E+02  227.237  0.00000E+00  1.00000E+00  1.00001  6.3906  9.9850E-11  9.9853E-11  3.1859E-03  2.7572E-04  1.0023E-10  3.0532E-05  1.0007E-10  3.4350E-04  3.4206E-04                                                                                                                                                                                                                                                                                                                                                                                                                                                                                                                                                                                                            
     760.0000     125.0000   -4975.0000  5.09913E+02  227.238  0.00000E+00  1.00000E+00  1.00001  6.3906  9.9850E-11  9.9853E-11  3.1860E-03  2.7572E-04  1.0023E-10  3.0532E-05  1.0007E-10  3.4350E-04  3.4206E-04                                                                                                                                                                                                                                                                                                                                                                                                                                                                                                                                                                                                            
     780.0000     125.0000   -4975.0000  5.09913E+02  227.238  0.00000E+00  1.00000E+00  1.00001  6.3906  9.9849E-11  9.9852E-11  3.1860E-03  2.7572E-04  1.0023E-10  3.0532E-05  1.0007E-10  3.4350E-04  3.4206E-04                                                                                                                                                                                                                                                                                                                                                                                                                                                                                                                                                                                                            
     800.0000     125.0000   -4975.0000  5.09912E+02  227.243  0.00000E+00  1.00000E+00  1.00001  6.3905  9.9897E-11  9.9900E-11  3.1869E-03  2.7571E-04  1.0028E-10  3.0531E-05  1.0012E-10  3.4350E-04  3.4206E-04                                                                                                                                                                                                                                                                                                                                                                                                                                                                                                                                                                                                            
     935.0000     125.0000   -4975.0000  5.09908E+02  227.246  0.00000E+00  1.00000E+00  1.00001  6.3905  9.9928E-11  9.9931E-11  3.1874E-03  2.7571E-04  1.0031E-10  3.0531E-05  1.0015E-10  3.4351E-04  3.4206E-04                                                                                                                                                                                                                                                                                                                                                                                                                                                                                                                                                                                                            
    1185.0000     125.0000   -4975.0000  5.09898E+02  227.257  0.00000E+00  1.00000E+00  1.00001  6.3904  9.9980E-11  9.9984E-11  3.1891E-03  2.7571E-04  1.0037E-10  3.0529E-05  1.0020E-10  3.4352E-04  3.4206E-04                                                                                                                                                                                                                                                                                                                                                                                                                                                                                                                                                                                                            
    1435.0000     125.0000   -4975.0000  5.09890E+02  227.267  0.00000E+00  1.00000E+00  1.00001  6.3902  9.9994E-11  9.9998E-11  3.1910E-03  2.7570E-04  1.0038E-10  3.0527E-05  1.0022E-10  3.4353E-04  3.4207E-04                                                                                                                                                                                                                                                                                                                                                                                                                                                                                                                                                                                                            
     125.0000     125.0000   -4725.0000  4.88444E+02  215.814  0.00000E+00  1.00000E+00  1.00001  6.5470  9.6394E-11  9.6395E-11  1.7553E-03  2.7610E-04  9.6424E-11  3.1900E-05  9.6411E-11  3.3569E-04  3.3568E-04                                                                                                                                                                                                                                                                                                                                                                                                                                                                                                                                                                                                            
     375.0000     125.0000   -4725.0000  4.88446E+02  215.407  0.00000E+00  1.00000E+00  1.00001  6.5527  9.5239E-11  9.5239E-11  1.7190E-03  2.7612E-04  9.5209E-11  3.1953E-05  9.5222E-11  3.3529E-04  3.3549E-04                                                                                                                                                                                                                                                                                                                                                                                                                                                                                                                                                                                                            
     625.0000     125.0000   -4725.0000  4.88446E+02  214.708  0.00000E+00  1.00000E+00  1.00001  6.5626  9.3500E-11  9.3499E-11  1.6586E-03  2.7610E-04  9.3423E-11  3.2039E-05  9.3456E-11  3.3469E-04  3.3508E-04                                                                                                                                                                                                                                                                                                                                                                                                                                                                                                                                                                                                            
     760.0000     125.0000   -4725.0000  4.88442E+02  214.675  0.00000E+00  1.00000E+00  1.00001  6.5630  9.3420E-11  9.3419E-11  1.6558E-03  2.7610E-04  9.3349E-11  3.2043E-05  9.3385E-11  3.3466E-04  3.3506E-04                                                                                                                                                                                                                                                                                                                                                                                                                                                                                                                                                                                                            
     780.0000     125.0000   -4725.0000  4.88442E+02  214.656  0.00000E+00  1.00000E+00  1.00001  6.5633  9.3381E-11  9.3380E-11  1.6542E-03  2.7610E-04  9.3490E-11  3.2046E-05  9.3527E-11  3.3464E-04  3.3505E-04                                                                                                                                                                                                                                                                                                                                                                                                                                                                                                                                                                                                            
     800.0000     125.0000   -4725.0000  4.88441E+02  215.193  0.00000E+00  1.00000E+00  1.00001  6.5557  9.4435E-11  9.4435E-11  1.7003E-03  2.7613E-04  9.4525E-11  3.1980E-05  9.4551E-11  3.3506E-04  3.3540E-04                                                                                                                                                                                                                                                                                                                                                                                                                                                                                                                                                                                                            
     935.0000     125.0000   -4725.0000  4.88436E+02  215.458  0.00000E+00  1.00000E+00  1.00001  6.5520  9.5074E-11  9.5074E-11  1.7235E-03  2.7612E-04  9.5173E-11  3.1947E-05  9.5183E-11  3.3533E-04  3.3553E-04                                                                                                                                                                                                                                                                                                                                                                                                                                                                                                                                                                                                            
    1185.0000     125.0000   -4725.0000  4.88424E+02  215.937  0.00000E+00  1.00000E+00  1.00001  6.5452  9.6510E-11  9.6511E-11  1.7665E-03  2.7610E-04  9.6644E-11  3.1884E-05  9.6623E-11  3.3580E-04  3.3575E-04                                                                                                                                                                                                                                                                                                                                                                                                                                                                                                                                                                                                            