Title="TOUGHREACT V3.30-OMP: Aqueous Total & Species Concentrations in mol/kg h2o, Surface & Exchanged Species in mol/kg h2o, Dry blocks in mol/L medium"                                                                                                                                                                                                                                                                                                                                                                                                                                                                                                                                                                                                                                                                       
Variables= "X(m)"   "Y(m)"   "Z(m)"   "P(bar)"     "T(C)"   "SatGas"   "SatLiq"     "aH2O"       "pH"        "t_na+"        "t_cl-"      "t_hco3-"       "t_ca+2"      "t_so4-2"       "t_mg+2"       "t_ba+2"       "t_al+3"     "t_h4sio4"                                                                                                                                                                                                                                                                                                                                                                                                                                                                                                                                                                                    
Zone T= "0.00000000E+00 yr" I=      9J=     10K=     23F=Point 
     125.0000     125.0000   -5425.0000  5.18687E+02  246.737  0.00000E+00  1.00000E+00  1.00000  7.0000  1.0000E-10  1.0000E-10  1.0000E-10  1.0000E-10  1.0000E-10  1.0000E-10  1.0000E-10  1.0000E-10  1.0000E-10                                                                                                                                                                                                                                                                                                                                                                                                                                                                                                                                                                                                            
     375.0000     125.0000   -5425.0000  5.18687E+02  246.737  0.00000E+00  1.00000E+00  1.00000  7.0000  1.0000E-10  1.0000E-10  1.0000E-10  1.0000E-10  1.0000E-10  1.0000E-10  1.0000E-10  1.0000E-10  1.0000E-10                                                                                                                                                                                                                                                                                                                                                                                                                                                                                                                                                                                                            
     625.0000     125.0000   -5425.0000  5.18687E+02  246.737  0.00000E+00  1.00000E+00  1.00000  7.0000  1.0000E-10  1.0000E-10  1.0000E-10  1.0000E-10  1.0000E-10  1.0000E-10  1.0000E-10  1.0000E-10  1.0000E-10                                                                                                                                                                                                                                                                                                                                                                                                                                                                                                                                                                                                            
     760.0000     125.0000   -5425.0000  5.18687E+02  246.737  0.00000E+00  1.00000E+00  1.00000  7.0000  1.0000E-10  1.0000E-10  1.0000E-10  1.0000E-10  1.0000E-10  1.0000E-10  1.0000E-10  1.0000E-10  1.0000E-10                                                                                                                                                                                                                                                                                                                                                                                                                                                                                                                                                                                                            
     780.0000     125.0000   -5425.0000  5.18687E+02  246.737  0.00000E+00  1.00000E+00  1.00000  7.0000  1.0000E-10  1.0000E-10  1.0000E-10  1.0000E-10  1.0000E-10  1.0000E-10  1.0000E-10  1.0000E-10  1.0000E-10                                                                                                                                                                                                                                                                                                                                                                                                                                                                                                                                                                                                            
     800.0000     125.0000   -5425.0000  5.18687E+02  246.737  0.00000E+00  1.00000E+00  1.00000  7.0000  1.0000E-10  1.0000E-10  1.0000E-10  1.0000E-10  1.0000E-10  1.0000E-10  1.0000E-10  1.0000E-10  1.0000E-10                                                                                                                                                                                                                                                                                                                                                                                                                                                                                                                                                                                                            
     935.0000     125.0000   -5425.0000  5.18687E+02  246.737  0.00000E+00  1.00000E+00  1.00000  7.0000  1.0000E-10  1.0000E-10  1.0000E-10  1.0000E-10  1.0000E-10  1.0000E-10  1.0000E-10  1.0000E-10  1.0000E-10                                                                                                                                                                                                                                                                                                                                                                                                                                                                                                                                                                                                            
    1185.0000     125.0000   -5425.0000  5.18687E+02  246.737  0.00000E+00  1.00000E+00  1.00000  7.0000  1.0000E-10  1.0000E-10  1.0000E-10  1.0000E-10  1.0000E-10  1.0000E-10  1.0000E-10  1.0000E-10  1.0000E-10                                                                                                                                                                                                                                                                                                                                                                                                                                                                                                                                                                                                            
    1435.0000     125.0000   -5425.0000  5.18687E+02  246.737  0.00000E+00  1.00000E+00  1.00000  7.0000  1.0000E-10  1.0000E-10  1.0000E-10  1.0000E-10  1.0000E-10  1.0000E-10  1.0000E-10  1.0000E-10  1.0000E-10                                                                                                                                                                                                                                                                                                                                                                                                                                                                                                                                                                                                            
     125.0000     125.0000   -5225.0000  4.99185E+02  238.038  0.00000E+00  1.00000E+00  1.00000  7.0000  1.0000E-10  1.0000E-10  1.0000E-10  1.0000E-10  1.0000E-10  1.0000E-10  1.0000E-10  1.0000E-10  1.0000E-10                                                                                                                                                                                                                                                                                                                                                                                                                                                                                                                                                                                                            
     375.0000     125.0000   -5225.0000  4.99185E+02  238.038  0.00000E+00  1.00000E+00  1.00000  7.0000  1.0000E-10  1.0000E-10  1.0000E-10  1.0000E-10  1.0000E-10  1.0000E-10  1.0000E-10  1.0000E-10  1.0000E-10                                                                                                                                                                                                                                                                                                                                                                                                                                                                                                                                                                                                            
     625.0000     125.0000   -5225.0000  4.99185E+02  238.038  0.00000E+00  1.00000E+00  1.00000  7.0000  1.0000E-10  1.0000E-10  1.0000E-10  1.0000E-10  1.0000E-10  1.0000E-10  1.0000E-10  1.0000E-10  1.0000E-10                                                                                                                                                                                                                                                                                                                                                                                                                                                                                                                                                                                                            
     760.0000     125.0000   -5225.0000  4.99185E+02  238.038  0.00000E+00  1.00000E+00  1.00000  7.0000  1.0000E-10  1.0000E-10  1.0000E-10  1.0000E-10  1.0000E-10  1.0000E-10  1.0000E-10  1.0000E-10  1.0000E-10                                                                                                                                                                                                                                                                                                                                                                                                                                                                                                                                                                                                            
     780.0000     125.0000   -5225.0000  4.99185E+02  238.038  0.00000E+00  1.00000E+00  1.00000  7.0000  1.0000E-10  1.0000E-10  1.0000E-10  1.0000E-10  1.0000E-10  1.0000E-10  1.0000E-10  1.0000E-10  1.0000E-10                                                                                                                                                                                                                                                                                                                                                                                                                                                                                                                                                                                                            
     800.0000     125.0000   -5225.0000  4.99185E+02  238.038  0.00000E+00  1.00000E+00  1.00000  7.0000  1.0000E-10  1.0000E-10  1.0000E-10  1.0000E-10  1.0000E-10  1.0000E-10  1.0000E-10  1.0000E-10  1.0000E-10                                                                                                                                                                                                                                                                                                                                                                                                                                                                                                                                                                                                            
     935.0000     125.0000   -5225.0000  4.99185E+02  238.038  0.00000E+00  1.00000E+00  1.00000  7.0000  1.0000E-10  1.0000E-10  1.0000E-10  1.0000E-10  1.0000E-10  1.0000E-10  1.0000E-10  1.0000E-10  1.0000E-10                                                                                                                                                                                                                                                                                                                                                                                                                                                                                                                                                                                                            
    1185.0000     125.0000   -5225.0000  4.99185E+02  238.038  0.00000E+00  1.00000E+00  1.00000  7.0000  1.0000E-10  1.0000E-10  1.0000E-10  1.0000E-10  1.0000E-10  1.0000E-10  1.0000E-10  1.0000E-10  1.0000E-10                                                                                                                                                                                                                                                                                                                                                                                                                                                                                                                                                                                                            
    1435.0000     125.0000   -5225.0000  4.99185E+02  238.038  0.00000E+00  1.00000E+00  1.00000  7.0000  1.0000E-10  1.0000E-10  1.0000E-10  1.0000E-10  1.0000E-10  1.0000E-10  1.0000E-10  1.0000E-10  1.0000E-10                                                                                                                                                                                                                                                                                                                                                                                                                                                                                                                                                                                                            
     125.0000     125.0000   -4975.0000  4.74807E+02  227.163  0.00000E+00  1.00000E+00  1.00000  7.0000  1.0000E-10  1.0000E-10  1.0000E-10  1.0000E-10  1.0000E-10  1.0000E-10  1.0000E-10  1.0000E-10  1.0000E-10                                                                                                                                                                                                                                                                                                                                                                                                                                                                                                                                                                                                            
     375.0000     125.0000   -4975.0000  4.74807E+02  227.163  0.00000E+00  1.00000E+00  1.00000  7.0000  1.0000E-10  1.0000E-10  1.0000E-10  1.0000E-10  1.0000E-10  1.0000E-10  1.0000E-10  1.0000E-10  1.0000E-10                                                                                                                                                                                                                                                                                                                                                                                                                                                                                                                                                                                                            
     625.0000     125.0000   -4975.0000  4.74807E+02  227.163  0.00000E+00  1.00000E+00  1.00000  7.0000  1.0000E-10  1.0000E-10  1.0000E-10  1.0000E-10  1.0000E-10  1.0000E-10  1.0000E-10  1.0000E-10  1.0000E-10                                                                                                                                                                                                                                                                                                                                                                                                                                                                                                                                                                                                            
     760.0000     125.0000   -4975.0000  4.74807E+02  227.163  0.00000E+00  1.00000E+00  1.00000  7.0000  1.0000E-10  1.0000E-10  1.0000E-10  1.0000E-10  1.0000E-10  1.0000E-10  1.0000E-10  1.0000E-10  1.0000E-10                                                                                                                                                                                                                                                                                                                                                                                                                                                                                                                                                                                                            
     780.0000     125.0000   -4975.0000  4.74807E+02  227.163  0.00000E+00  1.00000E+00  1.00000  7.0000  1.0000E-10  1.0000E-10  1.0000E-10  1.0000E-10  1.0000E-10  1.0000E-10  1.0000E-10  1.0000E-10  1.0000E-10                                                                                                                                                                                                                                                                                                                                                                                                                                                                                                                                                                                                            
     800.0000     125.0000   -4975.0000  4.74807E+02  227.163  0.00000E+00  1.00000E+00  1.00000  7.0000  1.0000E-10  1.0000E-10  1.0000E-10  1.0000E-10  1.0000E-10  1.0000E-10  1.0000E-10  1.0000E-10  1.0000E-10                                                                                                                                                                                                                                                                                                                                                                                                                                                                                                                                                                                                            
     935.0000     125.0000   -4975.0000  4.74807E+02  227.163  0.00000E+00  1.00000E+00  1.00000  7.0000  1.0000E-10  1.0000E-10  1.0000E-10  1.0000E-10  1.0000E-10  1.0000E-10  1.0000E-10  1.0000E-10  1.0000E-10                                                                                                                                                                                                                                                                                                                                                                                                                                                                                                                                                                                                            
    1185.0000     125.0000   -4975.0000  4.74807E+02  227.163  0.00000E+00  1.00000E+00  1.00000  7.0000  1.0000E-10  1.0000E-10  1.0000E-10  1.0000E-10  1.0000E-10  1.0000E-10  1.0000E-10  1.0000E-10  1.0000E-10                                                                                                                                                                                                                                                                                                                                                                                                                                                                                                                                                                                                            
    1435.0000     125.0000   -4975.0000  4.74807E+02  227.163  0.00000E+00  1.00000E+00  1.00000  7.0000  1.0000E-10  1.0000E-10  1.0000E-10  1.0000E-10  1.0000E-10  1.0000E-10  1.0000E-10  1.0000E-10  1.0000E-10                                                                                                                                                                                                                                                                                                                                                                                                                                                                                                                                                                                                            
     125.0000     125.0000   -4725.0000  4.50430E+02  216.287  0.00000E+00  1.00000E+00  1.00000  7.0000  1.0000E-10  1.0000E-10  1.0000E-10  1.0000E-10  1.0000E-10  1.0000E-10  1.0000E-10  1.0000E-10  1.0000E-10                                                                                                                                                                                                                                                                                                                                                                                                                                                                                                                                                                                                            
     375.0000     125.0000   -4725.0000  4.50430E+02  216.287  0.00000E+00  1.00000E+00  1.00000  7.0000  1.0000E-10  1.0000E-10  1.0000E-10  1.0000E-10  1.0000E-10  1.0000E-10  1.0000E-10  1.0000E-10  1.0000E-10                                                                                                                                                                                                                                                                                                                                                                                                                                                                                                                                                                                                            
     625.0000     125.0000   -4725.0000  4.50430E+02  216.287  0.00000E+00  1.00000E+00  1.00000  7.0000  1.0000E-10  1.0000E-10  1.0000E-10  1.0000E-10  1.0000E-10  1.0000E-10  1.0000E-10  1.0000E-10  1.0000E-10                                                                                                                                                                                                                                                                                                                                                                                                                                                                                                                                                                                                            
     760.0000     125.0000   -4725.0000  4.50430E+02  216.287  0.00000E+00  1.00000E+00  1.00000  7.0000  1.0000E-10  1.0000E-10  1.0000E-10  1.0000E-10  1.0000E-10  1.0000E-10  1.0000E-10  1.0000E-10  1.0000E-10                                                                                                                                                                                                                                                                                                                                                                                                                                                                                                                                                                                                            
     780.0000     125.0000   -4725.0000  4.50430E+02  216.287  0.00000E+00  1.00000E+00  1.00000  7.0000  1.0000E-10  1.0000E-10  1.0000E-10  1.0000E-10  1.0000E-10  1.0000E-10  1.0000E-10  1.0000E-10  1.0000E-10                                                                                                                                                                                                                                                                                                                                                                                                                                                                                                                                                                                                            
     800.0000     125.0000   -4725.0000  4.50430E+02  216.287  0.00000E+00  1.00000E+00  1.00000  7.0000  1.0000E-10  1.0000E-10  1.0000E-10  1.0000E-10  1.0000E-10  1.0000E-10  1.0000E-10  1.0000E-10  1.0000E-10                                                                                                                                                                                                                                                                                                                                                                                                                                                                                                                                                                                                            
     935.0000     125.0000   -4725.0000  4.50430E+02  216.287  0.00000E+00  1.00000E+00  1.00000  7.0000  1.0000E-10  1.0000E-10  1.0000E-10  1.0000E-10  1.0000E-10  1.0000E-10  1.0000E-10  1.0000E-10  1.0000E-10                                                                                                                                                                                                                                                                                                                                                                                                                                                                                                                                                                                                            
    1185.0000     125.0000   -4725.0000  4.50430E+02  216.287  0.00000E+00  1.00000E+00  1.00000  7.0000  1.0000E-10  1.0000E-10  1.0000E-10  1.0000E-10  1.0000E-10  1.0000E-10  1.0000E-10  1.0000E-10  1.0000E-10                                                                                                                                                                                                                                                                                                                                                                                                                                                                                                                                                                                                            