Title="TOUGHREACT V3.30-OMP: Aqueous Total & Species Concentrations in mol/kg h2o, Surface & Exchanged Species in mol/kg h2o, Dry blocks in mol/L medium"                                                                                                                                                                                                                                                                                                                                                                                                                                                                                                                                                                                                                                                                       
Variables= "X(m)"   "Y(m)"   "Z(m)"   "P(bar)"     "T(C)"   "SatGas"   "SatLiq"     "aH2O"       "pH"        "t_na+"        "t_cl-"      "t_hco3-"       "t_ca+2"      "t_so4-2"       "t_mg+2"       "t_ba+2"       "t_al+3"     "t_h4sio4"                                                                                                                                                                                                                                                                                                                                                                                                                                                                                                                                                                                    
Zone T= "1.68901255E+03 yr" I=      9J=     10K=     23F=Point 
     125.0000     125.0000   -5425.0000  5.47748E+02  257.858  0.00000E+00  1.00000E+00  1.00001  6.0204  1.0005E-10  1.0002E-10  1.5730E-02  2.6268E-04  9.8050E-11  2.6476E-05  9.8887E-11  3.5331E-04  3.5918E-04                                                                                                                                                                                                                                                                                                                                                                                                                                                                                                                                                                                                            
     375.0000     125.0000   -5425.0000  5.47748E+02  257.859  0.00000E+00  1.00000E+00  1.00001  6.0204  1.0005E-10  1.0002E-10  1.5730E-02  2.6268E-04  9.8050E-11  2.6476E-05  9.8887E-11  3.5331E-04  3.5918E-04                                                                                                                                                                                                                                                                                                                                                                                                                                                                                                                                                                                                            
     625.0000     125.0000   -5425.0000  5.47748E+02  257.859  0.00000E+00  1.00000E+00  1.00001  6.0204  1.0005E-10  1.0002E-10  1.5731E-02  2.6268E-04  9.8049E-11  2.6476E-05  9.8886E-11  3.5331E-04  3.5919E-04                                                                                                                                                                                                                                                                                                                                                                                                                                                                                                                                                                                                            
     760.0000     125.0000   -5425.0000  5.47747E+02  257.859  0.00000E+00  1.00000E+00  1.00001  6.0204  1.0005E-10  1.0002E-10  1.5731E-02  2.6268E-04  9.8049E-11  2.6476E-05  9.8886E-11  3.5331E-04  3.5919E-04                                                                                                                                                                                                                                                                                                                                                                                                                                                                                                                                                                                                            
     780.0000     125.0000   -5425.0000  5.47747E+02  257.859  0.00000E+00  1.00000E+00  1.00001  6.0204  1.0005E-10  1.0002E-10  1.5731E-02  2.6268E-04  9.8049E-11  2.6476E-05  9.8886E-11  3.5331E-04  3.5919E-04                                                                                                                                                                                                                                                                                                                                                                                                                                                                                                                                                                                                            
     800.0000     125.0000   -5425.0000  5.47747E+02  257.859  0.00000E+00  1.00000E+00  1.00001  6.0204  1.0005E-10  1.0002E-10  1.5730E-02  2.6268E-04  9.8049E-11  2.6476E-05  9.8886E-11  3.5331E-04  3.5919E-04                                                                                                                                                                                                                                                                                                                                                                                                                                                                                                                                                                                                            
     935.0000     125.0000   -5425.0000  5.47746E+02  257.859  0.00000E+00  1.00000E+00  1.00001  6.0204  1.0005E-10  1.0002E-10  1.5730E-02  2.6268E-04  9.8050E-11  2.6476E-05  9.8887E-11  3.5331E-04  3.5919E-04                                                                                                                                                                                                                                                                                                                                                                                                                                                                                                                                                                                                            
    1185.0000     125.0000   -5425.0000  5.47743E+02  257.859  0.00000E+00  1.00000E+00  1.00001  6.0204  1.0005E-10  1.0002E-10  1.5730E-02  2.6268E-04  9.8051E-11  2.6476E-05  9.8888E-11  3.5331E-04  3.5919E-04                                                                                                                                                                                                                                                                                                                                                                                                                                                                                                                                                                                                            
    1435.0000     125.0000   -5425.0000  5.47741E+02  257.859  0.00000E+00  1.00000E+00  1.00001  6.0204  1.0005E-10  1.0002E-10  1.5730E-02  2.6268E-04  9.8052E-11  2.6476E-05  9.8889E-11  3.5331E-04  3.5918E-04                                                                                                                                                                                                                                                                                                                                                                                                                                                                                                                                                                                                            
     125.0000     125.0000   -5225.0000  5.31108E+02  238.179  0.00000E+00  1.00000E+00  1.00001  6.2506  1.0003E-10  1.0005E-10  5.6745E-03  2.7252E-04  1.0153E-10  2.9103E-05  1.0090E-10  3.5092E-04  3.4589E-04                                                                                                                                                                                                                                                                                                                                                                                                                                                                                                                                                                                                            
     375.0000     125.0000   -5225.0000  5.31109E+02  238.178  0.00000E+00  1.00000E+00  1.00001  6.2506  1.0003E-10  1.0005E-10  5.6743E-03  2.7252E-04  1.0153E-10  2.9103E-05  1.0090E-10  3.5092E-04  3.4589E-04                                                                                                                                                                                                                                                                                                                                                                                                                                                                                                                                                                                                            
     625.0000     125.0000   -5225.0000  5.31109E+02  238.179  0.00000E+00  1.00000E+00  1.00001  6.2506  1.0003E-10  1.0004E-10  5.6744E-03  2.7252E-04  1.0153E-10  2.9103E-05  1.0090E-10  3.5092E-04  3.4589E-04                                                                                                                                                                                                                                                                                                                                                                                                                                                                                                                                                                                                            
     760.0000     125.0000   -5225.0000  5.31108E+02  238.179  0.00000E+00  1.00000E+00  1.00001  6.2506  1.0003E-10  1.0004E-10  5.6746E-03  2.7252E-04  1.0153E-10  2.9103E-05  1.0090E-10  3.5092E-04  3.4589E-04                                                                                                                                                                                                                                                                                                                                                                                                                                                                                                                                                                                                            
     780.0000     125.0000   -5225.0000  5.31108E+02  238.179  0.00000E+00  1.00000E+00  1.00001  6.2506  1.0003E-10  1.0004E-10  5.6746E-03  2.7252E-04  1.0153E-10  2.9103E-05  1.0090E-10  3.5092E-04  3.4589E-04                                                                                                                                                                                                                                                                                                                                                                                                                                                                                                                                                                                                            
     800.0000     125.0000   -5225.0000  5.31107E+02  238.179  0.00000E+00  1.00000E+00  1.00001  6.2506  1.0003E-10  1.0004E-10  5.6746E-03  2.7252E-04  1.0153E-10  2.9103E-05  1.0090E-10  3.5092E-04  3.4589E-04                                                                                                                                                                                                                                                                                                                                                                                                                                                                                                                                                                                                            
     935.0000     125.0000   -5225.0000  5.31106E+02  238.180  0.00000E+00  1.00000E+00  1.00001  6.2506  1.0003E-10  1.0004E-10  5.6748E-03  2.7252E-04  1.0153E-10  2.9103E-05  1.0090E-10  3.5092E-04  3.4589E-04                                                                                                                                                                                                                                                                                                                                                                                                                                                                                                                                                                                                            
    1185.0000     125.0000   -5225.0000  5.31103E+02  238.183  0.00000E+00  1.00000E+00  1.00001  6.2506  1.0003E-10  1.0005E-10  5.6757E-03  2.7252E-04  1.0153E-10  2.9103E-05  1.0090E-10  3.5092E-04  3.4589E-04                                                                                                                                                                                                                                                                                                                                                                                                                                                                                                                                                                                                            
    1435.0000     125.0000   -5225.0000  5.31100E+02  238.187  0.00000E+00  1.00000E+00  1.00001  6.2505  1.0003E-10  1.0005E-10  5.6767E-03  2.7252E-04  1.0153E-10  2.9102E-05  1.0090E-10  3.5092E-04  3.4589E-04                                                                                                                                                                                                                                                                                                                                                                                                                                                                                                                                                                                                            
     125.0000     125.0000   -4975.0000  5.09907E+02  227.261  0.00000E+00  1.00000E+00  1.00001  6.3904  9.9978E-11  9.9983E-11  3.1899E-03  2.7560E-04  1.0059E-10  3.0518E-05  1.0033E-10  3.4398E-04  3.4168E-04                                                                                                                                                                                                                                                                                                                                                                                                                                                                                                                                                                                                            
     375.0000     125.0000   -4975.0000  5.09910E+02  227.255  0.00000E+00  1.00000E+00  1.00001  6.3905  9.9937E-11  9.9942E-11  3.1889E-03  2.7560E-04  1.0054E-10  3.0519E-05  1.0029E-10  3.4397E-04  3.4168E-04                                                                                                                                                                                                                                                                                                                                                                                                                                                                                                                                                                                                            
     625.0000     125.0000   -4975.0000  5.09913E+02  227.248  0.00000E+00  1.00000E+00  1.00001  6.3906  9.9850E-11  9.9855E-11  3.1877E-03  2.7561E-04  1.0045E-10  3.0520E-05  1.0020E-10  3.4396E-04  3.4168E-04                                                                                                                                                                                                                                                                                                                                                                                                                                                                                                                                                                                                            
     760.0000     125.0000   -4975.0000  5.09911E+02  227.248  0.00000E+00  1.00000E+00  1.00001  6.3905  9.9850E-11  9.9855E-11  3.1878E-03  2.7561E-04  1.0045E-10  3.0520E-05  1.0020E-10  3.4396E-04  3.4168E-04                                                                                                                                                                                                                                                                                                                                                                                                                                                                                                                                                                                                            
     780.0000     125.0000   -4975.0000  5.09911E+02  227.248  0.00000E+00  1.00000E+00  1.00001  6.3905  9.9849E-11  9.9854E-11  3.1878E-03  2.7561E-04  1.0046E-10  3.0520E-05  1.0020E-10  3.4396E-04  3.4168E-04                                                                                                                                                                                                                                                                                                                                                                                                                                                                                                                                                                                                            
     800.0000     125.0000   -4975.0000  5.09910E+02  227.254  0.00000E+00  1.00000E+00  1.00001  6.3905  9.9897E-11  9.9902E-11  3.1888E-03  2.7561E-04  1.0050E-10  3.0519E-05  1.0025E-10  3.4397E-04  3.4168E-04                                                                                                                                                                                                                                                                                                                                                                                                                                                                                                                                                                                                            
     935.0000     125.0000   -4975.0000  5.09908E+02  227.258  0.00000E+00  1.00000E+00  1.00001  6.3904  9.9928E-11  9.9933E-11  3.1894E-03  2.7560E-04  1.0054E-10  3.0518E-05  1.0028E-10  3.4397E-04  3.4168E-04                                                                                                                                                                                                                                                                                                                                                                                                                                                                                                                                                                                                            
    1185.0000     125.0000   -4975.0000  5.09902E+02  227.269  0.00000E+00  1.00000E+00  1.00001  6.3903  9.9981E-11  9.9986E-11  3.1913E-03  2.7560E-04  1.0059E-10  3.0516E-05  1.0033E-10  3.4399E-04  3.4168E-04                                                                                                                                                                                                                                                                                                                                                                                                                                                                                                                                                                                                            
    1435.0000     125.0000   -4975.0000  5.09897E+02  227.281  0.00000E+00  1.00000E+00  1.00001  6.3901  9.9995E-11  1.0000E-10  3.1934E-03  2.7560E-04  1.0061E-10  3.0515E-05  1.0035E-10  3.4400E-04  3.4168E-04                                                                                                                                                                                                                                                                                                                                                                                                                                                                                                                                                                                                            
     125.0000     125.0000   -4725.0000  4.88437E+02  215.828  0.00000E+00  1.00000E+00  1.00001  6.5468  9.6423E-11  9.6423E-11  1.7566E-03  2.7607E-04  9.6519E-11  3.1894E-05  9.6477E-11  3.3586E-04  3.3555E-04                                                                                                                                                                                                                                                                                                                                                                                                                                                                                                                                                                                                            
     375.0000     125.0000   -4725.0000  4.88439E+02  215.420  0.00000E+00  1.00000E+00  1.00001  6.5525  9.5265E-11  9.5266E-11  1.7202E-03  2.7609E-04  9.5298E-11  3.1947E-05  9.5283E-11  3.3545E-04  3.3537E-04                                                                                                                                                                                                                                                                                                                                                                                                                                                                                                                                                                                                            
     625.0000     125.0000   -4725.0000  4.88440E+02  214.718  0.00000E+00  1.00000E+00  1.00001  6.5625  9.3519E-11  9.3519E-11  1.6595E-03  2.7607E-04  9.3497E-11  3.2034E-05  9.3507E-11  3.3484E-04  3.3497E-04                                                                                                                                                                                                                                                                                                                                                                                                                                                                                                                                                                                                            
     760.0000     125.0000   -4725.0000  4.88439E+02  214.685  0.00000E+00  1.00000E+00  1.00001  6.5629  9.3436E-11  9.3436E-11  1.6567E-03  2.7607E-04  9.3422E-11  3.2039E-05  9.3433E-11  3.3481E-04  3.3495E-04                                                                                                                                                                                                                                                                                                                                                                                                                                                                                                                                                                                                            
     780.0000     125.0000   -4725.0000  4.88439E+02  214.666  0.00000E+00  1.00000E+00  1.00001  6.5632  9.3406E-11  9.3406E-11  1.6550E-03  2.7607E-04  9.3567E-11  3.2041E-05  9.3579E-11  3.3479E-04  3.3494E-04                                                                                                                                                                                                                                                                                                                                                                                                                                                                                                                                                                                                            
     800.0000     125.0000   -4725.0000  4.88438E+02  215.205  0.00000E+00  1.00000E+00  1.00001  6.5556  9.4446E-11  9.4446E-11  1.7013E-03  2.7609E-04  9.4595E-11  3.1975E-05  9.4595E-11  3.3522E-04  3.3528E-04                                                                                                                                                                                                                                                                                                                                                                                                                                                                                                                                                                                                            
     935.0000     125.0000   -4725.0000  4.88436E+02  215.471  0.00000E+00  1.00000E+00  1.00001  6.5518  9.5104E-11  9.5104E-11  1.7247E-03  2.7609E-04  9.5265E-11  3.1941E-05  9.5248E-11  3.3549E-04  3.3540E-04                                                                                                                                                                                                                                                                                                                                                                                                                                                                                                                                                                                                            
    1185.0000     125.0000   -4725.0000  4.88432E+02  215.953  0.00000E+00  1.00000E+00  1.00001  6.5451  9.6542E-11  9.6543E-11  1.7679E-03  2.7606E-04  9.6743E-11  3.1878E-05  9.6693E-11  3.3597E-04  3.3562E-04                                                                                                                                                                                                                                                                                                                                                                                                                                                                                                                                                                                                            