Title="TOUGHREACT V3.30-OMP: Aqueous Total & Species Concentrations in mol/kg h2o, Surface & Exchanged Species in mol/kg h2o, Dry blocks in mol/L medium"                                                                                                                                                                                                                                                                                                                                                                                                                                                                                                                                                                                                                                                                       
Variables= "X(m)"   "Y(m)"   "Z(m)"   "P(bar)"     "T(C)"   "SatGas"   "SatLiq"     "aH2O"       "pH"        "t_na+"        "t_cl-"      "t_hco3-"       "t_ca+2"      "t_so4-2"       "t_mg+2"       "t_ba+2"       "t_al+3"     "t_h4sio4"                                                                                                                                                                                                                                                                                                                                                                                                                                                                                                                                                                                    
Zone T= "2.63967627E+03 yr" I=      9J=     10K=     23F=Point 
     125.0000     125.0000   -5425.0000  5.47616E+02  264.042  0.00000E+00  1.00000E+00  1.00001  5.9540  1.0007E-10  1.0001E-10  2.1482E-02  2.5841E-04  9.5955E-11  2.5604E-05  9.7672E-11  3.5281E-04  3.6473E-04                                                                                                                                                                                                                                                                                                                                                                                                                                                                                                                                                                                                            
     375.0000     125.0000   -5425.0000  5.47616E+02  264.043  0.00000E+00  1.00000E+00  1.00001  5.9540  1.0007E-10  1.0001E-10  2.1483E-02  2.5841E-04  9.5954E-11  2.5604E-05  9.7672E-11  3.5281E-04  3.6473E-04                                                                                                                                                                                                                                                                                                                                                                                                                                                                                                                                                                                                            
     625.0000     125.0000   -5425.0000  5.47616E+02  264.043  0.00000E+00  1.00000E+00  1.00001  5.9540  1.0007E-10  1.0001E-10  2.1483E-02  2.5841E-04  9.5953E-11  2.5604E-05  9.7671E-11  3.5281E-04  3.6473E-04                                                                                                                                                                                                                                                                                                                                                                                                                                                                                                                                                                                                            
     760.0000     125.0000   -5425.0000  5.47615E+02  264.043  0.00000E+00  1.00000E+00  1.00001  5.9540  1.0007E-10  1.0001E-10  2.1483E-02  2.5841E-04  9.5953E-11  2.5604E-05  9.7671E-11  3.5281E-04  3.6473E-04                                                                                                                                                                                                                                                                                                                                                                                                                                                                                                                                                                                                            
     780.0000     125.0000   -5425.0000  5.47615E+02  264.043  0.00000E+00  1.00000E+00  1.00001  5.9540  1.0007E-10  1.0001E-10  2.1483E-02  2.5841E-04  9.5953E-11  2.5604E-05  9.7671E-11  3.5281E-04  3.6473E-04                                                                                                                                                                                                                                                                                                                                                                                                                                                                                                                                                                                                            
     800.0000     125.0000   -5425.0000  5.47615E+02  264.043  0.00000E+00  1.00000E+00  1.00001  5.9540  1.0007E-10  1.0001E-10  2.1483E-02  2.5841E-04  9.5953E-11  2.5604E-05  9.7671E-11  3.5281E-04  3.6473E-04                                                                                                                                                                                                                                                                                                                                                                                                                                                                                                                                                                                                            
     935.0000     125.0000   -5425.0000  5.47614E+02  264.043  0.00000E+00  1.00000E+00  1.00001  5.9540  1.0007E-10  1.0001E-10  2.1483E-02  2.5841E-04  9.5954E-11  2.5604E-05  9.7672E-11  3.5281E-04  3.6473E-04                                                                                                                                                                                                                                                                                                                                                                                                                                                                                                                                                                                                            
    1185.0000     125.0000   -5425.0000  5.47612E+02  264.043  0.00000E+00  1.00000E+00  1.00001  5.9540  1.0007E-10  1.0001E-10  2.1483E-02  2.5841E-04  9.5955E-11  2.5604E-05  9.7673E-11  3.5281E-04  3.6473E-04                                                                                                                                                                                                                                                                                                                                                                                                                                                                                                                                                                                                            
    1435.0000     125.0000   -5425.0000  5.47610E+02  264.043  0.00000E+00  1.00000E+00  1.00001  5.9540  1.0007E-10  1.0001E-10  2.1483E-02  2.5841E-04  9.5957E-11  2.5604E-05  9.7675E-11  3.5281E-04  3.6473E-04                                                                                                                                                                                                                                                                                                                                                                                                                                                                                                                                                                                                            
     125.0000     125.0000   -5225.0000  5.31050E+02  238.214  0.00000E+00  1.00000E+00  1.00001  6.2505  1.0003E-10  1.0005E-10  5.6852E-03  2.7219E-04  1.0235E-10  2.9067E-05  1.0137E-10  3.5242E-04  3.4465E-04                                                                                                                                                                                                                                                                                                                                                                                                                                                                                                                                                                                                            
     375.0000     125.0000   -5225.0000  5.31051E+02  238.213  0.00000E+00  1.00000E+00  1.00001  6.2505  1.0003E-10  1.0005E-10  5.6847E-03  2.7219E-04  1.0235E-10  2.9067E-05  1.0137E-10  3.5242E-04  3.4465E-04                                                                                                                                                                                                                                                                                                                                                                                                                                                                                                                                                                                                            
     625.0000     125.0000   -5225.0000  5.31051E+02  238.212  0.00000E+00  1.00000E+00  1.00001  6.2505  1.0002E-10  1.0005E-10  5.6846E-03  2.7219E-04  1.0235E-10  2.9067E-05  1.0137E-10  3.5242E-04  3.4465E-04                                                                                                                                                                                                                                                                                                                                                                                                                                                                                                                                                                                                            
     760.0000     125.0000   -5225.0000  5.31050E+02  238.213  0.00000E+00  1.00000E+00  1.00001  6.2505  1.0002E-10  1.0005E-10  5.6848E-03  2.7219E-04  1.0235E-10  2.9067E-05  1.0137E-10  3.5242E-04  3.4465E-04                                                                                                                                                                                                                                                                                                                                                                                                                                                                                                                                                                                                            
     780.0000     125.0000   -5225.0000  5.31050E+02  238.213  0.00000E+00  1.00000E+00  1.00001  6.2505  1.0002E-10  1.0005E-10  5.6849E-03  2.7219E-04  1.0235E-10  2.9067E-05  1.0137E-10  3.5242E-04  3.4465E-04                                                                                                                                                                                                                                                                                                                                                                                                                                                                                                                                                                                                            
     800.0000     125.0000   -5225.0000  5.31050E+02  238.213  0.00000E+00  1.00000E+00  1.00001  6.2505  1.0002E-10  1.0005E-10  5.6849E-03  2.7219E-04  1.0235E-10  2.9067E-05  1.0137E-10  3.5242E-04  3.4465E-04                                                                                                                                                                                                                                                                                                                                                                                                                                                                                                                                                                                                            
     935.0000     125.0000   -5225.0000  5.31049E+02  238.215  0.00000E+00  1.00000E+00  1.00001  6.2505  1.0003E-10  1.0005E-10  5.6853E-03  2.7219E-04  1.0235E-10  2.9067E-05  1.0137E-10  3.5242E-04  3.4465E-04                                                                                                                                                                                                                                                                                                                                                                                                                                                                                                                                                                                                            
    1185.0000     125.0000   -5225.0000  5.31046E+02  238.219  0.00000E+00  1.00000E+00  1.00001  6.2504  1.0003E-10  1.0005E-10  5.6865E-03  2.7219E-04  1.0235E-10  2.9066E-05  1.0137E-10  3.5242E-04  3.4466E-04                                                                                                                                                                                                                                                                                                                                                                                                                                                                                                                                                                                                            
    1435.0000     125.0000   -5225.0000  5.31044E+02  238.223  0.00000E+00  1.00000E+00  1.00001  6.2504  1.0003E-10  1.0005E-10  5.6878E-03  2.7219E-04  1.0235E-10  2.9066E-05  1.0137E-10  3.5242E-04  3.4466E-04                                                                                                                                                                                                                                                                                                                                                                                                                                                                                                                                                                                                            
     125.0000     125.0000   -4975.0000  5.09850E+02  227.279  0.00000E+00  1.00000E+00  1.00001  6.3903  9.9979E-11  9.9987E-11  3.1930E-03  2.7544E-04  1.0093E-10  3.0499E-05  1.0053E-10  3.4468E-04  3.4110E-04                                                                                                                                                                                                                                                                                                                                                                                                                                                                                                                                                                                                            
     375.0000     125.0000   -4975.0000  5.09853E+02  227.272  0.00000E+00  1.00000E+00  1.00001  6.3904  9.9937E-11  9.9945E-11  3.1918E-03  2.7544E-04  1.0088E-10  3.0500E-05  1.0048E-10  3.4467E-04  3.4111E-04                                                                                                                                                                                                                                                                                                                                                                                                                                                                                                                                                                                                            
     625.0000     125.0000   -4975.0000  5.09856E+02  227.263  0.00000E+00  1.00000E+00  1.00001  6.3905  9.9850E-11  9.9858E-11  3.1904E-03  2.7545E-04  1.0079E-10  3.0501E-05  1.0039E-10  3.4466E-04  3.4111E-04                                                                                                                                                                                                                                                                                                                                                                                                                                                                                                                                                                                                            
     760.0000     125.0000   -4975.0000  5.09854E+02  227.264  0.00000E+00  1.00000E+00  1.00001  6.3905  9.9850E-11  9.9858E-11  3.1906E-03  2.7545E-04  1.0079E-10  3.0501E-05  1.0039E-10  3.4466E-04  3.4111E-04                                                                                                                                                                                                                                                                                                                                                                                                                                                                                                                                                                                                            
     780.0000     125.0000   -4975.0000  5.09854E+02  227.264  0.00000E+00  1.00000E+00  1.00001  6.3905  9.9850E-11  9.9858E-11  3.1906E-03  2.7545E-04  1.0079E-10  3.0501E-05  1.0040E-10  3.4466E-04  3.4111E-04                                                                                                                                                                                                                                                                                                                                                                                                                                                                                                                                                                                                            
     800.0000     125.0000   -4975.0000  5.09853E+02  227.270  0.00000E+00  1.00000E+00  1.00001  6.3904  9.9896E-11  9.9904E-11  3.1916E-03  2.7545E-04  1.0084E-10  3.0500E-05  1.0044E-10  3.4467E-04  3.4111E-04                                                                                                                                                                                                                                                                                                                                                                                                                                                                                                                                                                                                            
     935.0000     125.0000   -4975.0000  5.09851E+02  227.275  0.00000E+00  1.00000E+00  1.00001  6.3903  9.9928E-11  9.9936E-11  3.1923E-03  2.7544E-04  1.0088E-10  3.0500E-05  1.0048E-10  3.4467E-04  3.4111E-04                                                                                                                                                                                                                                                                                                                                                                                                                                                                                                                                                                                                            
    1185.0000     125.0000   -4975.0000  5.09846E+02  227.288  0.00000E+00  1.00000E+00  1.00001  6.3902  9.9981E-11  9.9989E-11  3.1945E-03  2.7544E-04  1.0093E-10  3.0498E-05  1.0053E-10  3.4469E-04  3.4110E-04                                                                                                                                                                                                                                                                                                                                                                                                                                                                                                                                                                                                            
    1435.0000     125.0000   -4975.0000  5.09842E+02  227.301  0.00000E+00  1.00000E+00  1.00001  6.3900  9.9995E-11  1.0000E-10  3.1967E-03  2.7543E-04  1.0095E-10  3.0496E-05  1.0055E-10  3.4471E-04  3.4110E-04                                                                                                                                                                                                                                                                                                                                                                                                                                                                                                                                                                                                            
     125.0000     125.0000   -4725.0000  4.88379E+02  215.851  0.00000E+00  1.00000E+00  1.00001  6.5465  9.6467E-11  9.6468E-11  1.7586E-03  2.7601E-04  9.6664E-11  3.1885E-05  9.6578E-11  3.3612E-04  3.3536E-04                                                                                                                                                                                                                                                                                                                                                                                                                                                                                                                                                                                                            
     375.0000     125.0000   -4725.0000  4.88381E+02  215.440  0.00000E+00  1.00000E+00  1.00001  6.5523  9.5308E-11  9.5308E-11  1.7220E-03  2.7603E-04  9.5435E-11  3.1939E-05  9.5379E-11  3.3570E-04  3.3518E-04                                                                                                                                                                                                                                                                                                                                                                                                                                                                                                                                                                                                            
     625.0000     125.0000   -4725.0000  4.88383E+02  214.734  0.00000E+00  1.00000E+00  1.00001  6.5623  9.3552E-11  9.3553E-11  1.6609E-03  2.7602E-04  9.3615E-11  3.2027E-05  9.3588E-11  3.3507E-04  3.3480E-04                                                                                                                                                                                                                                                                                                                                                                                                                                                                                                                                                                                                            
     760.0000     125.0000   -4725.0000  4.88382E+02  214.700  0.00000E+00  1.00000E+00  1.00001  6.5628  9.3466E-11  9.3467E-11  1.6580E-03  2.7602E-04  9.3538E-11  3.2031E-05  9.3513E-11  3.3503E-04  3.3478E-04                                                                                                                                                                                                                                                                                                                                                                                                                                                                                                                                                                                                            
     780.0000     125.0000   -4725.0000  4.88381E+02  214.681  0.00000E+00  1.00000E+00  1.00001  6.5630  9.3450E-11  9.3450E-11  1.6563E-03  2.7602E-04  9.3690E-11  3.2034E-05  9.3666E-11  3.3501E-04  3.3477E-04                                                                                                                                                                                                                                                                                                                                                                                                                                                                                                                                                                                                            
     800.0000     125.0000   -4725.0000  4.88381E+02  215.222  0.00000E+00  1.00000E+00  1.00001  6.5554  9.4468E-11  9.4469E-11  1.7029E-03  2.7604E-04  9.4709E-11  3.1968E-05  9.4670E-11  3.3546E-04  3.3510E-04                                                                                                                                                                                                                                                                                                                                                                                                                                                                                                                                                                                                            
     935.0000     125.0000   -4725.0000  4.88380E+02  215.491  0.00000E+00  1.00000E+00  1.00001  6.5516  9.5148E-11  9.5149E-11  1.7265E-03  2.7603E-04  9.5404E-11  3.1933E-05  9.5345E-11  3.3574E-04  3.3522E-04                                                                                                                                                                                                                                                                                                                                                                                                                                                                                                                                                                                                            
    1185.0000     125.0000   -4725.0000  4.88377E+02  215.975  0.00000E+00  1.00000E+00  1.00001  6.5448  9.6586E-11  9.6588E-11  1.7699E-03  2.7600E-04  9.6890E-11  3.1869E-05  9.6795E-11  3.3624E-04  3.3543E-04                                                                                                                                                                                                                                                                                                                                                                                                                                                                                                                                                                                                            