Title="TOUGHREACT V3.30-OMP: Aqueous Total & Species Concentrations in mol/kg h2o, Surface & Exchanged Species in mol/kg h2o, Dry blocks in mol/L medium"                                                                                                                                                                                                                                                                                                                                                                                                                                                                                                                                                                                                                                                                       
Variables= "X(m)"   "Y(m)"   "Z(m)"   "P(bar)"     "T(C)"   "SatGas"   "SatLiq"     "aH2O"       "pH"        "t_na+"        "t_cl-"      "t_hco3-"       "t_ca+2"      "t_so4-2"       "t_mg+2"       "t_ba+2"       "t_al+3"     "t_h4sio4"                                                                                                                                                                                                                                                                                                                                                                                                                                                                                                                                                                                    
Zone T= "2.53510326E+03 yr" I=      9J=     10K=     23F=Point 
     125.0000     125.0000   -5425.0000  5.47629E+02  263.362  0.00000E+00  1.00000E+00  1.00001  5.9612  1.0006E-10  1.0001E-10  2.0763E-02  2.5890E-04  9.6226E-11  2.5700E-05  9.7830E-11  3.5291E-04  3.6405E-04                                                                                                                                                                                                                                                                                                                                                                                                                                                                                                                                                                                                            
     375.0000     125.0000   -5425.0000  5.47630E+02  263.362  0.00000E+00  1.00000E+00  1.00001  5.9612  1.0006E-10  1.0001E-10  2.0763E-02  2.5890E-04  9.6225E-11  2.5700E-05  9.7829E-11  3.5291E-04  3.6405E-04                                                                                                                                                                                                                                                                                                                                                                                                                                                                                                                                                                                                            
     625.0000     125.0000   -5425.0000  5.47630E+02  263.363  0.00000E+00  1.00000E+00  1.00001  5.9612  1.0006E-10  1.0001E-10  2.0764E-02  2.5890E-04  9.6224E-11  2.5700E-05  9.7828E-11  3.5291E-04  3.6405E-04                                                                                                                                                                                                                                                                                                                                                                                                                                                                                                                                                                                                            
     760.0000     125.0000   -5425.0000  5.47629E+02  263.363  0.00000E+00  1.00000E+00  1.00001  5.9612  1.0006E-10  1.0001E-10  2.0764E-02  2.5890E-04  9.6224E-11  2.5700E-05  9.7829E-11  3.5291E-04  3.6405E-04                                                                                                                                                                                                                                                                                                                                                                                                                                                                                                                                                                                                            
     780.0000     125.0000   -5425.0000  5.47629E+02  263.363  0.00000E+00  1.00000E+00  1.00001  5.9612  1.0006E-10  1.0001E-10  2.0764E-02  2.5890E-04  9.6224E-11  2.5700E-05  9.7829E-11  3.5291E-04  3.6405E-04                                                                                                                                                                                                                                                                                                                                                                                                                                                                                                                                                                                                            
     800.0000     125.0000   -5425.0000  5.47629E+02  263.363  0.00000E+00  1.00000E+00  1.00001  5.9612  1.0006E-10  1.0001E-10  2.0764E-02  2.5890E-04  9.6224E-11  2.5700E-05  9.7829E-11  3.5291E-04  3.6405E-04                                                                                                                                                                                                                                                                                                                                                                                                                                                                                                                                                                                                            
     935.0000     125.0000   -5425.0000  5.47628E+02  263.363  0.00000E+00  1.00000E+00  1.00001  5.9612  1.0006E-10  1.0001E-10  2.0764E-02  2.5890E-04  9.6225E-11  2.5700E-05  9.7829E-11  3.5291E-04  3.6405E-04                                                                                                                                                                                                                                                                                                                                                                                                                                                                                                                                                                                                            
    1185.0000     125.0000   -5425.0000  5.47626E+02  263.362  0.00000E+00  1.00000E+00  1.00001  5.9612  1.0007E-10  1.0001E-10  2.0763E-02  2.5890E-04  9.6226E-11  2.5700E-05  9.7831E-11  3.5291E-04  3.6405E-04                                                                                                                                                                                                                                                                                                                                                                                                                                                                                                                                                                                                            
    1435.0000     125.0000   -5425.0000  5.47624E+02  263.363  0.00000E+00  1.00000E+00  1.00001  5.9612  1.0007E-10  1.0001E-10  2.0764E-02  2.5890E-04  9.6228E-11  2.5700E-05  9.7832E-11  3.5291E-04  3.6405E-04                                                                                                                                                                                                                                                                                                                                                                                                                                                                                                                                                                                                            
     125.0000     125.0000   -5225.0000  5.31055E+02  238.210  0.00000E+00  1.00000E+00  1.00001  6.2505  1.0003E-10  1.0005E-10  5.6838E-03  2.7223E-04  1.0226E-10  2.9071E-05  1.0132E-10  3.5226E-04  3.4479E-04                                                                                                                                                                                                                                                                                                                                                                                                                                                                                                                                                                                                            
     375.0000     125.0000   -5225.0000  5.31056E+02  238.208  0.00000E+00  1.00000E+00  1.00001  6.2505  1.0003E-10  1.0005E-10  5.6834E-03  2.7223E-04  1.0226E-10  2.9071E-05  1.0132E-10  3.5226E-04  3.4479E-04                                                                                                                                                                                                                                                                                                                                                                                                                                                                                                                                                                                                            
     625.0000     125.0000   -5225.0000  5.31057E+02  238.208  0.00000E+00  1.00000E+00  1.00001  6.2505  1.0002E-10  1.0005E-10  5.6833E-03  2.7223E-04  1.0226E-10  2.9071E-05  1.0132E-10  3.5226E-04  3.4479E-04                                                                                                                                                                                                                                                                                                                                                                                                                                                                                                                                                                                                            
     760.0000     125.0000   -5225.0000  5.31056E+02  238.209  0.00000E+00  1.00000E+00  1.00001  6.2505  1.0002E-10  1.0005E-10  5.6836E-03  2.7223E-04  1.0226E-10  2.9071E-05  1.0132E-10  3.5226E-04  3.4479E-04                                                                                                                                                                                                                                                                                                                                                                                                                                                                                                                                                                                                            
     780.0000     125.0000   -5225.0000  5.31056E+02  238.209  0.00000E+00  1.00000E+00  1.00001  6.2505  1.0002E-10  1.0005E-10  5.6836E-03  2.7223E-04  1.0226E-10  2.9071E-05  1.0132E-10  3.5226E-04  3.4479E-04                                                                                                                                                                                                                                                                                                                                                                                                                                                                                                                                                                                                            
     800.0000     125.0000   -5225.0000  5.31056E+02  238.209  0.00000E+00  1.00000E+00  1.00001  6.2505  1.0003E-10  1.0005E-10  5.6836E-03  2.7223E-04  1.0226E-10  2.9071E-05  1.0132E-10  3.5226E-04  3.4479E-04                                                                                                                                                                                                                                                                                                                                                                                                                                                                                                                                                                                                            
     935.0000     125.0000   -5225.0000  5.31054E+02  238.210  0.00000E+00  1.00000E+00  1.00001  6.2505  1.0003E-10  1.0005E-10  5.6840E-03  2.7223E-04  1.0226E-10  2.9071E-05  1.0132E-10  3.5226E-04  3.4479E-04                                                                                                                                                                                                                                                                                                                                                                                                                                                                                                                                                                                                            
    1185.0000     125.0000   -5225.0000  5.31051E+02  238.214  0.00000E+00  1.00000E+00  1.00001  6.2505  1.0003E-10  1.0005E-10  5.6852E-03  2.7223E-04  1.0226E-10  2.9070E-05  1.0132E-10  3.5226E-04  3.4479E-04                                                                                                                                                                                                                                                                                                                                                                                                                                                                                                                                                                                                            
    1435.0000     125.0000   -5225.0000  5.31049E+02  238.218  0.00000E+00  1.00000E+00  1.00001  6.2504  1.0003E-10  1.0005E-10  5.6864E-03  2.7222E-04  1.0226E-10  2.9070E-05  1.0132E-10  3.5226E-04  3.4479E-04                                                                                                                                                                                                                                                                                                                                                                                                                                                                                                                                                                                                            
     125.0000     125.0000   -4975.0000  5.09855E+02  227.277  0.00000E+00  1.00000E+00  1.00001  6.3903  9.9979E-11  9.9986E-11  3.1927E-03  2.7546E-04  1.0089E-10  3.0501E-05  1.0050E-10  3.4460E-04  3.4117E-04                                                                                                                                                                                                                                                                                                                                                                                                                                                                                                                                                                                                            
     375.0000     125.0000   -4975.0000  5.09858E+02  227.270  0.00000E+00  1.00000E+00  1.00001  6.3904  9.9937E-11  9.9945E-11  3.1915E-03  2.7546E-04  1.0084E-10  3.0502E-05  1.0046E-10  3.4459E-04  3.4117E-04                                                                                                                                                                                                                                                                                                                                                                                                                                                                                                                                                                                                            
     625.0000     125.0000   -4975.0000  5.09861E+02  227.261  0.00000E+00  1.00000E+00  1.00001  6.3905  9.9850E-11  9.9858E-11  3.1901E-03  2.7547E-04  1.0075E-10  3.0503E-05  1.0037E-10  3.4458E-04  3.4117E-04                                                                                                                                                                                                                                                                                                                                                                                                                                                                                                                                                                                                            
     760.0000     125.0000   -4975.0000  5.09859E+02  227.263  0.00000E+00  1.00000E+00  1.00001  6.3905  9.9850E-11  9.9858E-11  3.1903E-03  2.7547E-04  1.0075E-10  3.0503E-05  1.0037E-10  3.4458E-04  3.4117E-04                                                                                                                                                                                                                                                                                                                                                                                                                                                                                                                                                                                                            
     780.0000     125.0000   -4975.0000  5.09859E+02  227.263  0.00000E+00  1.00000E+00  1.00001  6.3905  9.9850E-11  9.9857E-11  3.1903E-03  2.7547E-04  1.0076E-10  3.0503E-05  1.0038E-10  3.4458E-04  3.4117E-04                                                                                                                                                                                                                                                                                                                                                                                                                                                                                                                                                                                                            
     800.0000     125.0000   -4975.0000  5.09859E+02  227.269  0.00000E+00  1.00000E+00  1.00001  6.3904  9.9896E-11  9.9904E-11  3.1913E-03  2.7546E-04  1.0080E-10  3.0502E-05  1.0042E-10  3.4459E-04  3.4117E-04                                                                                                                                                                                                                                                                                                                                                                                                                                                                                                                                                                                                            
     935.0000     125.0000   -4975.0000  5.09856E+02  227.273  0.00000E+00  1.00000E+00  1.00001  6.3903  9.9928E-11  9.9936E-11  3.1920E-03  2.7546E-04  1.0084E-10  3.0502E-05  1.0045E-10  3.4460E-04  3.4117E-04                                                                                                                                                                                                                                                                                                                                                                                                                                                                                                                                                                                                            
    1185.0000     125.0000   -4975.0000  5.09851E+02  227.286  0.00000E+00  1.00000E+00  1.00001  6.3902  9.9981E-11  9.9989E-11  3.1942E-03  2.7546E-04  1.0090E-10  3.0500E-05  1.0051E-10  3.4461E-04  3.4117E-04                                                                                                                                                                                                                                                                                                                                                                                                                                                                                                                                                                                                            
    1435.0000     125.0000   -4975.0000  5.09847E+02  227.299  0.00000E+00  1.00000E+00  1.00001  6.3900  9.9995E-11  1.0000E-10  3.1964E-03  2.7545E-04  1.0091E-10  3.0498E-05  1.0053E-10  3.4463E-04  3.4117E-04                                                                                                                                                                                                                                                                                                                                                                                                                                                                                                                                                                                                            
     125.0000     125.0000   -4725.0000  4.88385E+02  215.848  0.00000E+00  1.00000E+00  1.00001  6.5466  9.6462E-11  9.6463E-11  1.7584E-03  2.7602E-04  9.6648E-11  3.1886E-05  9.6567E-11  3.3609E-04  3.3538E-04                                                                                                                                                                                                                                                                                                                                                                                                                                                                                                                                                                                                            
     375.0000     125.0000   -4725.0000  4.88387E+02  215.438  0.00000E+00  1.00000E+00  1.00001  6.5523  9.5303E-11  9.5304E-11  1.7218E-03  2.7604E-04  9.5419E-11  3.1940E-05  9.5368E-11  3.3567E-04  3.3521E-04                                                                                                                                                                                                                                                                                                                                                                                                                                                                                                                                                                                                            
     625.0000     125.0000   -4725.0000  4.88388E+02  214.733  0.00000E+00  1.00000E+00  1.00001  6.5623  9.3549E-11  9.3549E-11  1.6607E-03  2.7603E-04  9.3602E-11  3.2028E-05  9.3579E-11  3.3504E-04  3.3481E-04                                                                                                                                                                                                                                                                                                                                                                                                                                                                                                                                                                                                            
     760.0000     125.0000   -4725.0000  4.88387E+02  214.699  0.00000E+00  1.00000E+00  1.00001  6.5628  9.3463E-11  9.3463E-11  1.6578E-03  2.7603E-04  9.3525E-11  3.2032E-05  9.3504E-11  3.3500E-04  3.3480E-04                                                                                                                                                                                                                                                                                                                                                                                                                                                                                                                                                                                                            
     780.0000     125.0000   -4725.0000  4.88387E+02  214.679  0.00000E+00  1.00000E+00  1.00001  6.5631  9.3445E-11  9.3445E-11  1.6562E-03  2.7603E-04  9.3676E-11  3.2035E-05  9.3656E-11  3.3499E-04  3.3479E-04                                                                                                                                                                                                                                                                                                                                                                                                                                                                                                                                                                                                            
     800.0000     125.0000   -4725.0000  4.88387E+02  215.220  0.00000E+00  1.00000E+00  1.00001  6.5554  9.4466E-11  9.4466E-11  1.7027E-03  2.7605E-04  9.4697E-11  3.1968E-05  9.4661E-11  3.3543E-04  3.3512E-04                                                                                                                                                                                                                                                                                                                                                                                                                                                                                                                                                                                                            
     935.0000     125.0000   -4725.0000  4.88385E+02  215.489  0.00000E+00  1.00000E+00  1.00001  6.5516  9.5143E-11  9.5144E-11  1.7263E-03  2.7604E-04  9.5389E-11  3.1934E-05  9.5334E-11  3.3571E-04  3.3524E-04                                                                                                                                                                                                                                                                                                                                                                                                                                                                                                                                                                                                            
    1185.0000     125.0000   -4725.0000  4.88382E+02  215.973  0.00000E+00  1.00000E+00  1.00001  6.5448  9.6581E-11  9.6583E-11  1.7697E-03  2.7601E-04  9.6874E-11  3.1870E-05  9.6784E-11  3.3621E-04  3.3545E-04                                                                                                                                                                                                                                                                                                                                                                                                                                                                                                                                                                                                            