Title="TOUGHREACT V3.30-OMP: Aqueous Total & Species Concentrations in mol/kg h2o, Surface & Exchanged Species in mol/kg h2o, Dry blocks in mol/L medium"                                                                                                                                                                                                                                                                                                                                                                                                                                                                                                                                                                                                                                                                       
Variables= "X(m)"   "Y(m)"   "Z(m)"   "P(bar)"     "T(C)"   "SatGas"   "SatLiq"     "aH2O"       "pH"        "t_na+"        "t_cl-"      "t_hco3-"       "t_ca+2"      "t_so4-2"       "t_mg+2"       "t_ba+2"       "t_al+3"     "t_h4sio4"                                                                                                                                                                                                                                                                                                                                                                                                                                                                                                                                                                                    
Zone T= "2.21821535E+03 yr" I=      9J=     10K=     23F=Point 
     125.0000     125.0000   -5425.0000  5.47673E+02  261.300  0.00000E+00  1.00000E+00  1.00001  5.9831  1.0006E-10  1.0002E-10  1.8720E-02  2.6035E-04  9.6982E-11  2.5992E-05  9.8269E-11  3.5314E-04  3.6211E-04                                                                                                                                                                                                                                                                                                                                                                                                                                                                                                                                                                                                            
     375.0000     125.0000   -5425.0000  5.47673E+02  261.300  0.00000E+00  1.00000E+00  1.00001  5.9831  1.0006E-10  1.0002E-10  1.8721E-02  2.6035E-04  9.6981E-11  2.5992E-05  9.8268E-11  3.5314E-04  3.6211E-04                                                                                                                                                                                                                                                                                                                                                                                                                                                                                                                                                                                                            
     625.0000     125.0000   -5425.0000  5.47674E+02  261.301  0.00000E+00  1.00000E+00  1.00001  5.9831  1.0006E-10  1.0002E-10  1.8721E-02  2.6035E-04  9.6980E-11  2.5992E-05  9.8268E-11  3.5314E-04  3.6211E-04                                                                                                                                                                                                                                                                                                                                                                                                                                                                                                                                                                                                            
     760.0000     125.0000   -5425.0000  5.47673E+02  261.301  0.00000E+00  1.00000E+00  1.00001  5.9831  1.0006E-10  1.0002E-10  1.8721E-02  2.6035E-04  9.6981E-11  2.5992E-05  9.8268E-11  3.5314E-04  3.6211E-04                                                                                                                                                                                                                                                                                                                                                                                                                                                                                                                                                                                                            
     780.0000     125.0000   -5425.0000  5.47673E+02  261.301  0.00000E+00  1.00000E+00  1.00001  5.9831  1.0006E-10  1.0002E-10  1.8721E-02  2.6035E-04  9.6981E-11  2.5992E-05  9.8268E-11  3.5314E-04  3.6211E-04                                                                                                                                                                                                                                                                                                                                                                                                                                                                                                                                                                                                            
     800.0000     125.0000   -5425.0000  5.47672E+02  261.301  0.00000E+00  1.00000E+00  1.00001  5.9831  1.0006E-10  1.0002E-10  1.8721E-02  2.6035E-04  9.6981E-11  2.5992E-05  9.8268E-11  3.5314E-04  3.6211E-04                                                                                                                                                                                                                                                                                                                                                                                                                                                                                                                                                                                                            
     935.0000     125.0000   -5425.0000  5.47671E+02  261.301  0.00000E+00  1.00000E+00  1.00001  5.9831  1.0006E-10  1.0002E-10  1.8721E-02  2.6035E-04  9.6981E-11  2.5992E-05  9.8268E-11  3.5314E-04  3.6211E-04                                                                                                                                                                                                                                                                                                                                                                                                                                                                                                                                                                                                            
    1185.0000     125.0000   -5425.0000  5.47669E+02  261.301  0.00000E+00  1.00000E+00  1.00001  5.9831  1.0006E-10  1.0002E-10  1.8721E-02  2.6035E-04  9.6982E-11  2.5992E-05  9.8270E-11  3.5314E-04  3.6211E-04                                                                                                                                                                                                                                                                                                                                                                                                                                                                                                                                                                                                            
    1435.0000     125.0000   -5425.0000  5.47667E+02  261.301  0.00000E+00  1.00000E+00  1.00001  5.9831  1.0006E-10  1.0002E-10  1.8721E-02  2.6035E-04  9.6984E-11  2.5992E-05  9.8271E-11  3.5314E-04  3.6211E-04                                                                                                                                                                                                                                                                                                                                                                                                                                                                                                                                                                                                            
     125.0000     125.0000   -5225.0000  5.31074E+02  238.197  0.00000E+00  1.00000E+00  1.00001  6.2506  1.0003E-10  1.0005E-10  5.6800E-03  2.7234E-04  1.0199E-10  2.9083E-05  1.0117E-10  3.5176E-04  3.4520E-04                                                                                                                                                                                                                                                                                                                                                                                                                                                                                                                                                                                                            
     375.0000     125.0000   -5225.0000  5.31075E+02  238.196  0.00000E+00  1.00000E+00  1.00001  6.2506  1.0003E-10  1.0005E-10  5.6797E-03  2.7234E-04  1.0199E-10  2.9083E-05  1.0116E-10  3.5176E-04  3.4520E-04                                                                                                                                                                                                                                                                                                                                                                                                                                                                                                                                                                                                            
     625.0000     125.0000   -5225.0000  5.31076E+02  238.196  0.00000E+00  1.00000E+00  1.00001  6.2506  1.0003E-10  1.0005E-10  5.6797E-03  2.7234E-04  1.0199E-10  2.9083E-05  1.0116E-10  3.5176E-04  3.4520E-04                                                                                                                                                                                                                                                                                                                                                                                                                                                                                                                                                                                                            
     760.0000     125.0000   -5225.0000  5.31075E+02  238.197  0.00000E+00  1.00000E+00  1.00001  6.2506  1.0003E-10  1.0005E-10  5.6799E-03  2.7234E-04  1.0199E-10  2.9083E-05  1.0116E-10  3.5176E-04  3.4520E-04                                                                                                                                                                                                                                                                                                                                                                                                                                                                                                                                                                                                            
     780.0000     125.0000   -5225.0000  5.31074E+02  238.197  0.00000E+00  1.00000E+00  1.00001  6.2506  1.0003E-10  1.0005E-10  5.6799E-03  2.7234E-04  1.0199E-10  2.9083E-05  1.0116E-10  3.5176E-04  3.4520E-04                                                                                                                                                                                                                                                                                                                                                                                                                                                                                                                                                                                                            
     800.0000     125.0000   -5225.0000  5.31074E+02  238.197  0.00000E+00  1.00000E+00  1.00001  6.2506  1.0003E-10  1.0005E-10  5.6800E-03  2.7234E-04  1.0199E-10  2.9083E-05  1.0116E-10  3.5176E-04  3.4520E-04                                                                                                                                                                                                                                                                                                                                                                                                                                                                                                                                                                                                            
     935.0000     125.0000   -5225.0000  5.31073E+02  238.198  0.00000E+00  1.00000E+00  1.00001  6.2506  1.0003E-10  1.0005E-10  5.6802E-03  2.7234E-04  1.0199E-10  2.9083E-05  1.0116E-10  3.5176E-04  3.4520E-04                                                                                                                                                                                                                                                                                                                                                                                                                                                                                                                                                                                                            
    1185.0000     125.0000   -5225.0000  5.31070E+02  238.202  0.00000E+00  1.00000E+00  1.00001  6.2505  1.0003E-10  1.0005E-10  5.6813E-03  2.7234E-04  1.0199E-10  2.9082E-05  1.0117E-10  3.5176E-04  3.4520E-04                                                                                                                                                                                                                                                                                                                                                                                                                                                                                                                                                                                                            
    1435.0000     125.0000   -5225.0000  5.31068E+02  238.205  0.00000E+00  1.00000E+00  1.00001  6.2505  1.0003E-10  1.0005E-10  5.6825E-03  2.7233E-04  1.0199E-10  2.9082E-05  1.0117E-10  3.5176E-04  3.4520E-04                                                                                                                                                                                                                                                                                                                                                                                                                                                                                                                                                                                                            
     125.0000     125.0000   -4975.0000  5.09874E+02  227.271  0.00000E+00  1.00000E+00  1.00001  6.3903  9.9978E-11  9.9985E-11  3.1916E-03  2.7551E-04  1.0077E-10  3.0507E-05  1.0044E-10  3.4437E-04  3.4136E-04                                                                                                                                                                                                                                                                                                                                                                                                                                                                                                                                                                                                            
     375.0000     125.0000   -4975.0000  5.09877E+02  227.264  0.00000E+00  1.00000E+00  1.00001  6.3904  9.9937E-11  9.9944E-11  3.1905E-03  2.7552E-04  1.0073E-10  3.0508E-05  1.0039E-10  3.4436E-04  3.4136E-04                                                                                                                                                                                                                                                                                                                                                                                                                                                                                                                                                                                                            
     625.0000     125.0000   -4975.0000  5.09880E+02  227.256  0.00000E+00  1.00000E+00  1.00001  6.3905  9.9850E-11  9.9857E-11  3.1892E-03  2.7552E-04  1.0064E-10  3.0510E-05  1.0031E-10  3.4435E-04  3.4136E-04                                                                                                                                                                                                                                                                                                                                                                                                                                                                                                                                                                                                            
     760.0000     125.0000   -4975.0000  5.09878E+02  227.257  0.00000E+00  1.00000E+00  1.00001  6.3905  9.9850E-11  9.9857E-11  3.1893E-03  2.7552E-04  1.0064E-10  3.0509E-05  1.0031E-10  3.4435E-04  3.4136E-04                                                                                                                                                                                                                                                                                                                                                                                                                                                                                                                                                                                                            
     780.0000     125.0000   -4975.0000  5.09878E+02  227.257  0.00000E+00  1.00000E+00  1.00001  6.3905  9.9849E-11  9.9856E-11  3.1893E-03  2.7552E-04  1.0064E-10  3.0509E-05  1.0031E-10  3.4435E-04  3.4136E-04                                                                                                                                                                                                                                                                                                                                                                                                                                                                                                                                                                                                            
     800.0000     125.0000   -4975.0000  5.09877E+02  227.263  0.00000E+00  1.00000E+00  1.00001  6.3904  9.9896E-11  9.9903E-11  3.1903E-03  2.7552E-04  1.0069E-10  3.0509E-05  1.0036E-10  3.4436E-04  3.4136E-04                                                                                                                                                                                                                                                                                                                                                                                                                                                                                                                                                                                                            
     935.0000     125.0000   -4975.0000  5.09875E+02  227.267  0.00000E+00  1.00000E+00  1.00001  6.3904  9.9928E-11  9.9935E-11  3.1910E-03  2.7551E-04  1.0072E-10  3.0508E-05  1.0039E-10  3.4436E-04  3.4136E-04                                                                                                                                                                                                                                                                                                                                                                                                                                                                                                                                                                                                            
    1185.0000     125.0000   -4975.0000  5.09869E+02  227.280  0.00000E+00  1.00000E+00  1.00001  6.3902  9.9981E-11  9.9988E-11  3.1931E-03  2.7551E-04  1.0078E-10  3.0506E-05  1.0044E-10  3.4438E-04  3.4136E-04                                                                                                                                                                                                                                                                                                                                                                                                                                                                                                                                                                                                            
    1435.0000     125.0000   -4975.0000  5.09866E+02  227.292  0.00000E+00  1.00000E+00  1.00001  6.3900  9.9995E-11  1.0000E-10  3.1952E-03  2.7551E-04  1.0080E-10  3.0504E-05  1.0046E-10  3.4439E-04  3.4136E-04                                                                                                                                                                                                                                                                                                                                                                                                                                                                                                                                                                                                            
     125.0000     125.0000   -4725.0000  4.88403E+02  215.841  0.00000E+00  1.00000E+00  1.00001  6.5467  9.6447E-11  9.6448E-11  1.7577E-03  2.7604E-04  9.6599E-11  3.1889E-05  9.6533E-11  3.3601E-04  3.3545E-04                                                                                                                                                                                                                                                                                                                                                                                                                                                                                                                                                                                                            
     375.0000     125.0000   -4725.0000  4.88405E+02  215.431  0.00000E+00  1.00000E+00  1.00001  6.5524  9.5289E-11  9.5289E-11  1.7212E-03  2.7606E-04  9.5373E-11  3.1943E-05  9.5336E-11  3.3559E-04  3.3527E-04                                                                                                                                                                                                                                                                                                                                                                                                                                                                                                                                                                                                            
     625.0000     125.0000   -4725.0000  4.88407E+02  214.727  0.00000E+00  1.00000E+00  1.00001  6.5624  9.3537E-11  9.3538E-11  1.6603E-03  2.7605E-04  9.3562E-11  3.2030E-05  9.3552E-11  3.3497E-04  3.3487E-04                                                                                                                                                                                                                                                                                                                                                                                                                                                                                                                                                                                                            
     760.0000     125.0000   -4725.0000  4.88406E+02  214.693  0.00000E+00  1.00000E+00  1.00001  6.5628  9.3453E-11  9.3453E-11  1.6574E-03  2.7605E-04  9.3486E-11  3.2035E-05  9.3477E-11  3.3493E-04  3.3486E-04                                                                                                                                                                                                                                                                                                                                                                                                                                                                                                                                                                                                            
     780.0000     125.0000   -4725.0000  4.88405E+02  214.674  0.00000E+00  1.00000E+00  1.00001  6.5631  9.3430E-11  9.3430E-11  1.6558E-03  2.7605E-04  9.3635E-11  3.2037E-05  9.3627E-11  3.3491E-04  3.3485E-04                                                                                                                                                                                                                                                                                                                                                                                                                                                                                                                                                                                                            
     800.0000     125.0000   -4725.0000  4.88405E+02  215.214  0.00000E+00  1.00000E+00  1.00001  6.5555  9.4458E-11  9.4458E-11  1.7022E-03  2.7607E-04  9.4658E-11  3.1971E-05  9.4636E-11  3.3535E-04  3.3518E-04                                                                                                                                                                                                                                                                                                                                                                                                                                                                                                                                                                                                            
     935.0000     125.0000   -4725.0000  4.88404E+02  215.482  0.00000E+00  1.00000E+00  1.00001  6.5517  9.5128E-11  9.5129E-11  1.7257E-03  2.7606E-04  9.5342E-11  3.1936E-05  9.5302E-11  3.3563E-04  3.3530E-04                                                                                                                                                                                                                                                                                                                                                                                                                                                                                                                                                                                                            
    1185.0000     125.0000   -4725.0000  4.88401E+02  215.965  0.00000E+00  1.00000E+00  1.00001  6.5449  9.6567E-11  9.6568E-11  1.7690E-03  2.7603E-04  9.6825E-11  3.1873E-05  9.6750E-11  3.3612E-04  3.3552E-04                                                                                                                                                                                                                                                                                                                                                                                                                                                                                                                                                                                                            