Title="TOUGHREACT V3.30-OMP: Aqueous Total & Species Concentrations in mol/kg h2o, Surface & Exchanged Species in mol/kg h2o, Dry blocks in mol/L medium"                                                                                                                                                                                                                                                                                                                                                                                                                                                                                                                                                                                                                                                                       
Variables= "X(m)"   "Y(m)"   "Z(m)"   "P(bar)"     "T(C)"   "SatGas"   "SatLiq"     "aH2O"       "pH"        "t_na+"        "t_cl-"      "t_hco3-"       "t_ca+2"      "t_so4-2"       "t_mg+2"       "t_ba+2"       "t_al+3"     "t_h4sio4"                                                                                                                                                                                                                                                                                                                                                                                                                                                                                                                                                                                    
Zone T= "2.12314898E+02 yr" I=      9J=     10K=     23F=Point 
     125.0000     125.0000   -5425.0000  5.40325E+02  248.215  0.00000E+00  1.00000E+00  1.00001  6.1295  1.0003E-10  1.0003E-10  9.5887E-03  2.6842E-04  1.0003E-10  2.7805E-05  1.0003E-10  3.5250E-04  3.5249E-04                                                                                                                                                                                                                                                                                                                                                                                                                                                                                                                                                                                                            
     375.0000     125.0000   -5425.0000  5.40324E+02  248.216  0.00000E+00  1.00000E+00  1.00001  6.1295  1.0003E-10  1.0003E-10  9.5890E-03  2.6842E-04  1.0003E-10  2.7805E-05  1.0003E-10  3.5250E-04  3.5249E-04                                                                                                                                                                                                                                                                                                                                                                                                                                                                                                                                                                                                            
     625.0000     125.0000   -5425.0000  5.40323E+02  248.217  0.00000E+00  1.00000E+00  1.00001  6.1295  1.0003E-10  1.0003E-10  9.5893E-03  2.6842E-04  1.0003E-10  2.7804E-05  1.0003E-10  3.5250E-04  3.5249E-04                                                                                                                                                                                                                                                                                                                                                                                                                                                                                                                                                                                                            
     760.0000     125.0000   -5425.0000  5.40322E+02  248.216  0.00000E+00  1.00000E+00  1.00001  6.1295  1.0003E-10  1.0003E-10  9.5892E-03  2.6842E-04  1.0003E-10  2.7805E-05  1.0003E-10  3.5250E-04  3.5249E-04                                                                                                                                                                                                                                                                                                                                                                                                                                                                                                                                                                                                            
     780.0000     125.0000   -5425.0000  5.40322E+02  248.216  0.00000E+00  1.00000E+00  1.00001  6.1295  1.0003E-10  1.0003E-10  9.5892E-03  2.6842E-04  1.0003E-10  2.7805E-05  1.0003E-10  3.5250E-04  3.5249E-04                                                                                                                                                                                                                                                                                                                                                                                                                                                                                                                                                                                                            
     800.0000     125.0000   -5425.0000  5.40322E+02  248.216  0.00000E+00  1.00000E+00  1.00001  6.1295  1.0003E-10  1.0003E-10  9.5891E-03  2.6842E-04  1.0003E-10  2.7805E-05  1.0003E-10  3.5250E-04  3.5249E-04                                                                                                                                                                                                                                                                                                                                                                                                                                                                                                                                                                                                            
     935.0000     125.0000   -5425.0000  5.40321E+02  248.216  0.00000E+00  1.00000E+00  1.00001  6.1295  1.0003E-10  1.0003E-10  9.5890E-03  2.6842E-04  1.0003E-10  2.7805E-05  1.0003E-10  3.5250E-04  3.5249E-04                                                                                                                                                                                                                                                                                                                                                                                                                                                                                                                                                                                                            
    1185.0000     125.0000   -5425.0000  5.40320E+02  248.216  0.00000E+00  1.00000E+00  1.00001  6.1295  1.0003E-10  1.0003E-10  9.5888E-03  2.6842E-04  1.0003E-10  2.7805E-05  1.0003E-10  3.5250E-04  3.5249E-04                                                                                                                                                                                                                                                                                                                                                                                                                                                                                                                                                                                                            
    1435.0000     125.0000   -5425.0000  5.40318E+02  248.216  0.00000E+00  1.00000E+00  1.00001  6.1295  1.0003E-10  1.0003E-10  9.5888E-03  2.6842E-04  1.0003E-10  2.7805E-05  1.0003E-10  3.5250E-04  3.5249E-04                                                                                                                                                                                                                                                                                                                                                                                                                                                                                                                                                                                                            
     125.0000     125.0000   -5225.0000  5.23707E+02  238.108  0.00000E+00  1.00000E+00  1.00001  6.2511  1.0003E-10  1.0004E-10  5.6533E-03  2.7307E-04  1.0024E-10  2.9164E-05  1.0015E-10  3.4854E-04  3.4785E-04                                                                                                                                                                                                                                                                                                                                                                                                                                                                                                                                                                                                            
     375.0000     125.0000   -5225.0000  5.23706E+02  238.109  0.00000E+00  1.00000E+00  1.00001  6.2511  1.0003E-10  1.0003E-10  5.6535E-03  2.7307E-04  1.0024E-10  2.9164E-05  1.0015E-10  3.4854E-04  3.4785E-04                                                                                                                                                                                                                                                                                                                                                                                                                                                                                                                                                                                                            
     625.0000     125.0000   -5225.0000  5.23704E+02  238.110  0.00000E+00  1.00000E+00  1.00001  6.2510  1.0003E-10  1.0003E-10  5.6539E-03  2.7306E-04  1.0024E-10  2.9164E-05  1.0015E-10  3.4854E-04  3.4785E-04                                                                                                                                                                                                                                                                                                                                                                                                                                                                                                                                                                                                            
     760.0000     125.0000   -5225.0000  5.23703E+02  238.110  0.00000E+00  1.00000E+00  1.00001  6.2510  1.0003E-10  1.0003E-10  5.6537E-03  2.7306E-04  1.0024E-10  2.9164E-05  1.0015E-10  3.4854E-04  3.4785E-04                                                                                                                                                                                                                                                                                                                                                                                                                                                                                                                                                                                                            
     780.0000     125.0000   -5225.0000  5.23703E+02  238.110  0.00000E+00  1.00000E+00  1.00001  6.2511  1.0003E-10  1.0003E-10  5.6537E-03  2.7306E-04  1.0024E-10  2.9164E-05  1.0015E-10  3.4854E-04  3.4785E-04                                                                                                                                                                                                                                                                                                                                                                                                                                                                                                                                                                                                            
     800.0000     125.0000   -5225.0000  5.23703E+02  238.110  0.00000E+00  1.00000E+00  1.00001  6.2511  1.0003E-10  1.0003E-10  5.6537E-03  2.7306E-04  1.0024E-10  2.9164E-05  1.0015E-10  3.4854E-04  3.4785E-04                                                                                                                                                                                                                                                                                                                                                                                                                                                                                                                                                                                                            
     935.0000     125.0000   -5225.0000  5.23702E+02  238.109  0.00000E+00  1.00000E+00  1.00001  6.2511  1.0003E-10  1.0003E-10  5.6535E-03  2.7307E-04  1.0024E-10  2.9164E-05  1.0015E-10  3.4854E-04  3.4785E-04                                                                                                                                                                                                                                                                                                                                                                                                                                                                                                                                                                                                            
    1185.0000     125.0000   -5225.0000  5.23700E+02  238.109  0.00000E+00  1.00000E+00  1.00001  6.2511  1.0003E-10  1.0003E-10  5.6534E-03  2.7307E-04  1.0024E-10  2.9164E-05  1.0015E-10  3.4854E-04  3.4785E-04                                                                                                                                                                                                                                                                                                                                                                                                                                                                                                                                                                                                            
    1435.0000     125.0000   -5225.0000  5.23697E+02  238.109  0.00000E+00  1.00000E+00  1.00001  6.2511  1.0003E-10  1.0004E-10  5.6535E-03  2.7307E-04  1.0024E-10  2.9164E-05  1.0015E-10  3.4854E-04  3.4785E-04                                                                                                                                                                                                                                                                                                                                                                                                                                                                                                                                                                                                            
     125.0000     125.0000   -4975.0000  5.02942E+02  227.212  0.00000E+00  1.00000E+00  1.00001  6.3908  9.9993E-11  9.9994E-11  3.1817E-03  2.7586E-04  1.0008E-10  3.0549E-05  1.0004E-10  3.4288E-04  3.4256E-04                                                                                                                                                                                                                                                                                                                                                                                                                                                                                                                                                                                                            
     375.0000     125.0000   -4975.0000  5.02940E+02  227.211  0.00000E+00  1.00000E+00  1.00001  6.3908  9.9959E-11  9.9960E-11  3.1814E-03  2.7586E-04  1.0004E-10  3.0549E-05  1.0001E-10  3.4288E-04  3.4256E-04                                                                                                                                                                                                                                                                                                                                                                                                                                                                                                                                                                                                            
     625.0000     125.0000   -4975.0000  5.02937E+02  227.209  0.00000E+00  1.00000E+00  1.00001  6.3909  9.9884E-11  9.9885E-11  3.1810E-03  2.7586E-04  9.9964E-11  3.0550E-05  9.9929E-11  3.4287E-04  3.4256E-04                                                                                                                                                                                                                                                                                                                                                                                                                                                                                                                                                                                                            
     760.0000     125.0000   -4975.0000  5.02936E+02  227.208  0.00000E+00  1.00000E+00  1.00001  6.3909  9.9883E-11  9.9884E-11  3.1808E-03  2.7586E-04  9.9963E-11  3.0550E-05  9.9929E-11  3.4287E-04  3.4256E-04                                                                                                                                                                                                                                                                                                                                                                                                                                                                                                                                                                                                            
     780.0000     125.0000   -4975.0000  5.02935E+02  227.207  0.00000E+00  1.00000E+00  1.00001  6.3909  9.9881E-11  9.9882E-11  3.1808E-03  2.7586E-04  9.9966E-11  3.0550E-05  9.9931E-11  3.4287E-04  3.4256E-04                                                                                                                                                                                                                                                                                                                                                                                                                                                                                                                                                                                                            
     800.0000     125.0000   -4975.0000  5.02935E+02  227.211  0.00000E+00  1.00000E+00  1.00001  6.3908  9.9926E-11  9.9927E-11  3.1814E-03  2.7586E-04  1.0001E-10  3.0550E-05  9.9974E-11  3.4288E-04  3.4256E-04                                                                                                                                                                                                                                                                                                                                                                                                                                                                                                                                                                                                            
     935.0000     125.0000   -4975.0000  5.02934E+02  227.211  0.00000E+00  1.00000E+00  1.00001  6.3908  9.9950E-11  9.9951E-11  3.1814E-03  2.7586E-04  1.0003E-10  3.0550E-05  9.9998E-11  3.4288E-04  3.4256E-04                                                                                                                                                                                                                                                                                                                                                                                                                                                                                                                                                                                                            
    1185.0000     125.0000   -4975.0000  5.02928E+02  227.214  0.00000E+00  1.00000E+00  1.00001  6.3908  9.9993E-11  9.9994E-11  3.1819E-03  2.7586E-04  1.0008E-10  3.0549E-05  1.0004E-10  3.4288E-04  3.4256E-04                                                                                                                                                                                                                                                                                                                                                                                                                                                                                                                                                                                                            
    1435.0000     125.0000   -4975.0000  5.02918E+02  227.217  0.00000E+00  1.00000E+00  1.00001  6.3908  1.0000E-10  1.0000E-10  3.1824E-03  2.7585E-04  1.0009E-10  3.0548E-05  1.0005E-10  3.4289E-04  3.4256E-04                                                                                                                                                                                                                                                                                                                                                                                                                                                                                                                                                                                                            
     125.0000     125.0000   -4725.0000  4.82188E+02  215.928  0.00000E+00  1.00000E+00  1.00001  6.5453  9.6979E-11  9.6979E-11  1.7656E-03  2.7614E-04  9.6940E-11  3.1890E-05  9.6957E-11  3.3560E-04  3.3591E-04                                                                                                                                                                                                                                                                                                                                                                                                                                                                                                                                                                                                            
     375.0000     125.0000   -4725.0000  4.82181E+02  215.616  0.00000E+00  1.00000E+00  1.00001  6.5497  9.6003E-11  9.6002E-11  1.7375E-03  2.7616E-04  9.5921E-11  3.1931E-05  9.5956E-11  3.3530E-04  3.3575E-04                                                                                                                                                                                                                                                                                                                                                                                                                                                                                                                                                                                                            
     625.0000     125.0000   -4725.0000  4.82169E+02  215.001  0.00000E+00  1.00000E+00  1.00001  6.5584  9.4409E-11  9.4408E-11  1.6836E-03  2.7614E-04  9.4298E-11  3.2006E-05  9.4347E-11  3.3481E-04  3.3536E-04                                                                                                                                                                                                                                                                                                                                                                                                                                                                                                                                                                                                            
     760.0000     125.0000   -4725.0000  4.82171E+02  215.005  0.00000E+00  1.00000E+00  1.00001  6.5583  9.4428E-11  9.4427E-11  1.6840E-03  2.7614E-04  9.4325E-11  3.2006E-05  9.4374E-11  3.3482E-04  3.3536E-04                                                                                                                                                                                                                                                                                                                                                                                                                                                                                                                                                                                                            
     780.0000     125.0000   -4725.0000  4.82171E+02  214.996  0.00000E+00  1.00000E+00  1.00001  6.5585  9.4399E-11  9.4398E-11  1.6832E-03  2.7614E-04  9.4454E-11  3.2007E-05  9.4503E-11  3.3481E-04  3.3535E-04                                                                                                                                                                                                                                                                                                                                                                                                                                                                                                                                                                                                            
     800.0000     125.0000   -4725.0000  4.82172E+02  215.402  0.00000E+00  1.00000E+00  1.00001  6.5527  9.5237E-11  9.5236E-11  1.7186E-03  2.7616E-04  9.5255E-11  3.1958E-05  9.5302E-11  3.3509E-04  3.3566E-04                                                                                                                                                                                                                                                                                                                                                                                                                                                                                                                                                                                                            
     935.0000     125.0000   -4725.0000  4.82175E+02  215.627  0.00000E+00  1.00000E+00  1.00001  6.5496  9.5775E-11  9.5775E-11  1.7385E-03  2.7616E-04  9.5800E-11  3.1929E-05  9.5834E-11  3.3530E-04  3.3577E-04                                                                                                                                                                                                                                                                                                                                                                                                                                                                                                                                                                                                            
    1185.0000     125.0000   -4725.0000  4.82162E+02  216.004  0.00000E+00  1.00000E+00  1.00001  6.5443  9.7025E-11  9.7025E-11  1.7725E-03  2.7614E-04  9.7068E-11  3.1880E-05  9.7081E-11  3.3566E-04  3.3596E-04                                                                                                                                                                                                                                                                                                                                                                                                                                                                                                                                                                                                            