Title="TOUGHREACT V3.30-OMP: Aqueous Total & Species Concentrations in mol/kg h2o, Surface & Exchanged Species in mol/kg h2o, Dry blocks in mol/L medium"                                                                                                                                                                                                                                                                                                                                                                                                                                                                                                                                                                                                                                                                       
Variables= "X(m)"   "Y(m)"   "Z(m)"   "P(bar)"     "T(C)"   "SatGas"   "SatLiq"     "aH2O"       "pH"        "t_na+"        "t_cl-"      "t_hco3-"       "t_ca+2"      "t_so4-2"       "t_mg+2"       "t_ba+2"       "t_al+3"     "t_h4sio4"                                                                                                                                                                                                                                                                                                                                                                                                                                                                                                                                                                                    
Zone T= "2.85199117E+03 yr" I=      9J=     10K=     23F=Point 
     125.0000     125.0000   -5425.0000  5.47588E+02  265.424  0.00000E+00  1.00000E+00  1.00001  5.9396  1.0007E-10  1.0000E-10  2.3017E-02  2.5740E-04  9.5371E-11  2.5407E-05  9.7332E-11  3.5257E-04  3.6616E-04                                                                                                                                                                                                                                                                                                                                                                                                                                                                                                                                                                                                            
     375.0000     125.0000   -5425.0000  5.47589E+02  265.425  0.00000E+00  1.00000E+00  1.00001  5.9396  1.0007E-10  1.0000E-10  2.3017E-02  2.5740E-04  9.5370E-11  2.5407E-05  9.7331E-11  3.5257E-04  3.6616E-04                                                                                                                                                                                                                                                                                                                                                                                                                                                                                                                                                                                                            
     625.0000     125.0000   -5425.0000  5.47589E+02  265.426  0.00000E+00  1.00000E+00  1.00001  5.9396  1.0007E-10  1.0000E-10  2.3018E-02  2.5740E-04  9.5369E-11  2.5407E-05  9.7330E-11  3.5257E-04  3.6616E-04                                                                                                                                                                                                                                                                                                                                                                                                                                                                                                                                                                                                            
     760.0000     125.0000   -5425.0000  5.47588E+02  265.425  0.00000E+00  1.00000E+00  1.00001  5.9396  1.0007E-10  1.0000E-10  2.3018E-02  2.5740E-04  9.5369E-11  2.5407E-05  9.7331E-11  3.5257E-04  3.6616E-04                                                                                                                                                                                                                                                                                                                                                                                                                                                                                                                                                                                                            
     780.0000     125.0000   -5425.0000  5.47588E+02  265.425  0.00000E+00  1.00000E+00  1.00001  5.9396  1.0007E-10  1.0000E-10  2.3018E-02  2.5740E-04  9.5369E-11  2.5407E-05  9.7331E-11  3.5257E-04  3.6616E-04                                                                                                                                                                                                                                                                                                                                                                                                                                                                                                                                                                                                            
     800.0000     125.0000   -5425.0000  5.47588E+02  265.425  0.00000E+00  1.00000E+00  1.00001  5.9396  1.0007E-10  1.0000E-10  2.3018E-02  2.5740E-04  9.5370E-11  2.5407E-05  9.7331E-11  3.5257E-04  3.6616E-04                                                                                                                                                                                                                                                                                                                                                                                                                                                                                                                                                                                                            
     935.0000     125.0000   -5425.0000  5.47587E+02  265.425  0.00000E+00  1.00000E+00  1.00001  5.9396  1.0007E-10  1.0000E-10  2.3018E-02  2.5740E-04  9.5370E-11  2.5407E-05  9.7332E-11  3.5257E-04  3.6616E-04                                                                                                                                                                                                                                                                                                                                                                                                                                                                                                                                                                                                            
    1185.0000     125.0000   -5425.0000  5.47584E+02  265.425  0.00000E+00  1.00000E+00  1.00001  5.9396  1.0007E-10  1.0001E-10  2.3017E-02  2.5740E-04  9.5372E-11  2.5407E-05  9.7333E-11  3.5257E-04  3.6616E-04                                                                                                                                                                                                                                                                                                                                                                                                                                                                                                                                                                                                            
    1435.0000     125.0000   -5425.0000  5.47583E+02  265.425  0.00000E+00  1.00000E+00  1.00001  5.9396  1.0007E-10  1.0001E-10  2.3018E-02  2.5740E-04  9.5374E-11  2.5407E-05  9.7335E-11  3.5258E-04  3.6616E-04                                                                                                                                                                                                                                                                                                                                                                                                                                                                                                                                                                                                            
     125.0000     125.0000   -5225.0000  5.31039E+02  238.224  0.00000E+00  1.00000E+00  1.00001  6.2504  1.0003E-10  1.0005E-10  5.6880E-03  2.7212E-04  1.0253E-10  2.9058E-05  1.0148E-10  3.5275E-04  3.4438E-04                                                                                                                                                                                                                                                                                                                                                                                                                                                                                                                                                                                                            
     375.0000     125.0000   -5225.0000  5.31040E+02  238.222  0.00000E+00  1.00000E+00  1.00001  6.2504  1.0002E-10  1.0005E-10  5.6875E-03  2.7212E-04  1.0253E-10  2.9059E-05  1.0148E-10  3.5275E-04  3.4438E-04                                                                                                                                                                                                                                                                                                                                                                                                                                                                                                                                                                                                            
     625.0000     125.0000   -5225.0000  5.31041E+02  238.221  0.00000E+00  1.00000E+00  1.00001  6.2505  1.0002E-10  1.0005E-10  5.6873E-03  2.7212E-04  1.0253E-10  2.9059E-05  1.0147E-10  3.5276E-04  3.4438E-04                                                                                                                                                                                                                                                                                                                                                                                                                                                                                                                                                                                                            
     760.0000     125.0000   -5225.0000  5.31040E+02  238.222  0.00000E+00  1.00000E+00  1.00001  6.2504  1.0002E-10  1.0005E-10  5.6875E-03  2.7212E-04  1.0253E-10  2.9059E-05  1.0147E-10  3.5276E-04  3.4438E-04                                                                                                                                                                                                                                                                                                                                                                                                                                                                                                                                                                                                            
     780.0000     125.0000   -5225.0000  5.31040E+02  238.222  0.00000E+00  1.00000E+00  1.00001  6.2504  1.0002E-10  1.0005E-10  5.6876E-03  2.7212E-04  1.0253E-10  2.9059E-05  1.0147E-10  3.5276E-04  3.4438E-04                                                                                                                                                                                                                                                                                                                                                                                                                                                                                                                                                                                                            
     800.0000     125.0000   -5225.0000  5.31040E+02  238.222  0.00000E+00  1.00000E+00  1.00001  6.2504  1.0002E-10  1.0005E-10  5.6876E-03  2.7212E-04  1.0253E-10  2.9059E-05  1.0148E-10  3.5276E-04  3.4438E-04                                                                                                                                                                                                                                                                                                                                                                                                                                                                                                                                                                                                            
     935.0000     125.0000   -5225.0000  5.31038E+02  238.224  0.00000E+00  1.00000E+00  1.00001  6.2504  1.0002E-10  1.0005E-10  5.6880E-03  2.7212E-04  1.0253E-10  2.9058E-05  1.0148E-10  3.5276E-04  3.4438E-04                                                                                                                                                                                                                                                                                                                                                                                                                                                                                                                                                                                                            
    1185.0000     125.0000   -5225.0000  5.31035E+02  238.228  0.00000E+00  1.00000E+00  1.00001  6.2504  1.0003E-10  1.0005E-10  5.6893E-03  2.7212E-04  1.0253E-10  2.9058E-05  1.0148E-10  3.5276E-04  3.4438E-04                                                                                                                                                                                                                                                                                                                                                                                                                                                                                                                                                                                                            
    1435.0000     125.0000   -5225.0000  5.31033E+02  238.233  0.00000E+00  1.00000E+00  1.00001  6.2503  1.0003E-10  1.0005E-10  5.6907E-03  2.7211E-04  1.0253E-10  2.9057E-05  1.0148E-10  3.5276E-04  3.4439E-04                                                                                                                                                                                                                                                                                                                                                                                                                                                                                                                                                                                                            
     125.0000     125.0000   -4975.0000  5.09839E+02  227.283  0.00000E+00  1.00000E+00  1.00001  6.3903  9.9979E-11  9.9987E-11  3.1937E-03  2.7541E-04  1.0100E-10  3.0495E-05  1.0057E-10  3.4484E-04  3.4098E-04                                                                                                                                                                                                                                                                                                                                                                                                                                                                                                                                                                                                            
     375.0000     125.0000   -4975.0000  5.09842E+02  227.276  0.00000E+00  1.00000E+00  1.00001  6.3904  9.9937E-11  9.9946E-11  3.1925E-03  2.7541E-04  1.0096E-10  3.0496E-05  1.0053E-10  3.4483E-04  3.4098E-04                                                                                                                                                                                                                                                                                                                                                                                                                                                                                                                                                                                                            
     625.0000     125.0000   -4975.0000  5.09845E+02  227.267  0.00000E+00  1.00000E+00  1.00001  6.3905  9.9850E-11  9.9859E-11  3.1910E-03  2.7541E-04  1.0087E-10  3.0497E-05  1.0044E-10  3.4482E-04  3.4098E-04                                                                                                                                                                                                                                                                                                                                                                                                                                                                                                                                                                                                            
     760.0000     125.0000   -4975.0000  5.09843E+02  227.268  0.00000E+00  1.00000E+00  1.00001  6.3905  9.9850E-11  9.9858E-11  3.1912E-03  2.7541E-04  1.0087E-10  3.0497E-05  1.0044E-10  3.4482E-04  3.4098E-04                                                                                                                                                                                                                                                                                                                                                                                                                                                                                                                                                                                                            
     780.0000     125.0000   -4975.0000  5.09843E+02  227.268  0.00000E+00  1.00000E+00  1.00001  6.3905  9.9850E-11  9.9858E-11  3.1912E-03  2.7541E-04  1.0087E-10  3.0497E-05  1.0044E-10  3.4482E-04  3.4098E-04                                                                                                                                                                                                                                                                                                                                                                                                                                                                                                                                                                                                            
     800.0000     125.0000   -4975.0000  5.09843E+02  227.274  0.00000E+00  1.00000E+00  1.00001  6.3904  9.9896E-11  9.9904E-11  3.1922E-03  2.7541E-04  1.0092E-10  3.0496E-05  1.0049E-10  3.4482E-04  3.4098E-04                                                                                                                                                                                                                                                                                                                                                                                                                                                                                                                                                                                                            
     935.0000     125.0000   -4975.0000  5.09840E+02  227.279  0.00000E+00  1.00000E+00  1.00001  6.3903  9.9928E-11  9.9937E-11  3.1930E-03  2.7541E-04  1.0095E-10  3.0496E-05  1.0052E-10  3.4483E-04  3.4098E-04                                                                                                                                                                                                                                                                                                                                                                                                                                                                                                                                                                                                            
    1185.0000     125.0000   -4975.0000  5.09835E+02  227.292  0.00000E+00  1.00000E+00  1.00001  6.3901  9.9981E-11  9.9990E-11  3.1953E-03  2.7540E-04  1.0101E-10  3.0493E-05  1.0058E-10  3.4485E-04  3.4098E-04                                                                                                                                                                                                                                                                                                                                                                                                                                                                                                                                                                                                            
    1435.0000     125.0000   -4975.0000  5.09831E+02  227.306  0.00000E+00  1.00000E+00  1.00001  6.3900  9.9996E-11  1.0000E-10  3.1975E-03  2.7540E-04  1.0103E-10  3.0492E-05  1.0059E-10  3.4487E-04  3.4098E-04                                                                                                                                                                                                                                                                                                                                                                                                                                                                                                                                                                                                            
     125.0000     125.0000   -4725.0000  4.88369E+02  215.856  0.00000E+00  1.00000E+00  1.00001  6.5465  9.6477E-11  9.6479E-11  1.7591E-03  2.7600E-04  9.6697E-11  3.1883E-05  9.6601E-11  3.3618E-04  3.3532E-04                                                                                                                                                                                                                                                                                                                                                                                                                                                                                                                                                                                                            
     375.0000     125.0000   -4725.0000  4.88370E+02  215.444  0.00000E+00  1.00000E+00  1.00001  6.5523  9.5317E-11  9.5318E-11  1.7224E-03  2.7602E-04  9.5466E-11  3.1937E-05  9.5401E-11  3.3575E-04  3.3514E-04                                                                                                                                                                                                                                                                                                                                                                                                                                                                                                                                                                                                            
     625.0000     125.0000   -4725.0000  4.88372E+02  214.738  0.00000E+00  1.00000E+00  1.00001  6.5622  9.3560E-11  9.3561E-11  1.6612E-03  2.7601E-04  9.3641E-11  3.2025E-05  9.3606E-11  3.3512E-04  3.3476E-04                                                                                                                                                                                                                                                                                                                                                                                                                                                                                                                                                                                                            
     760.0000     125.0000   -4725.0000  4.88371E+02  214.704  0.00000E+00  1.00000E+00  1.00001  6.5627  9.3473E-11  9.3474E-11  1.6583E-03  2.7601E-04  9.3564E-11  3.2030E-05  9.3531E-11  3.3508E-04  3.3474E-04                                                                                                                                                                                                                                                                                                                                                                                                                                                                                                                                                                                                            
     780.0000     125.0000   -4725.0000  4.88371E+02  214.684  0.00000E+00  1.00000E+00  1.00001  6.5630  9.3460E-11  9.3460E-11  1.6566E-03  2.7601E-04  9.3718E-11  3.2032E-05  9.3685E-11  3.3506E-04  3.3473E-04                                                                                                                                                                                                                                                                                                                                                                                                                                                                                                                                                                                                            
     800.0000     125.0000   -4725.0000  4.88371E+02  215.226  0.00000E+00  1.00000E+00  1.00001  6.5553  9.4474E-11  9.4475E-11  1.7032E-03  2.7603E-04  9.4735E-11  3.1966E-05  9.4687E-11  3.3551E-04  3.3506E-04                                                                                                                                                                                                                                                                                                                                                                                                                                                                                                                                                                                                            
     935.0000     125.0000   -4725.0000  4.88369E+02  215.496  0.00000E+00  1.00000E+00  1.00001  6.5515  9.5157E-11  9.5159E-11  1.7269E-03  2.7602E-04  9.5435E-11  3.1931E-05  9.5367E-11  3.3580E-04  3.3517E-04                                                                                                                                                                                                                                                                                                                                                                                                                                                                                                                                                                                                            
    1185.0000     125.0000   -4725.0000  4.88366E+02  215.980  0.00000E+00  1.00000E+00  1.00001  6.5447  9.6596E-11  9.6598E-11  1.7704E-03  2.7599E-04  9.6923E-11  3.1867E-05  9.6818E-11  3.3630E-04  3.3538E-04                                                                                                                                                                                                                                                                                                                                                                                                                                                                                                                                                                                                            