Title="TOUGHREACT V3.30-OMP: Aqueous Total & Species Concentrations in mol/kg h2o, Surface & Exchanged Species in mol/kg h2o, Dry blocks in mol/L medium"                                                                                                                                                                                                                                                                                                                                                                                                                                                                                                                                                                                                                                                                       
Variables= "X(m)"   "Y(m)"   "Z(m)"   "P(bar)"     "T(C)"   "SatGas"   "SatLiq"     "aH2O"       "pH"        "t_na+"        "t_cl-"      "t_hco3-"       "t_ca+2"      "t_so4-2"       "t_mg+2"       "t_ba+2"       "t_al+3"     "t_h4sio4"                                                                                                                                                                                                                                                                                                                                                                                                                                                                                                                                                                                    
Zone T= "1.26755163E+03 yr" I=      9J=     10K=     23F=Point 
     125.0000     125.0000   -5425.0000  5.47795E+02  255.119  0.00000E+00  1.00000E+00  1.00001  6.0507  1.0004E-10  1.0003E-10  1.3681E-02  2.6444E-04  9.8751E-11  2.6858E-05  9.9292E-11  3.5327E-04  3.5709E-04                                                                                                                                                                                                                                                                                                                                                                                                                                                                                                                                                                                                            
     375.0000     125.0000   -5425.0000  5.47796E+02  255.119  0.00000E+00  1.00000E+00  1.00001  6.0507  1.0004E-10  1.0003E-10  1.3681E-02  2.6444E-04  9.8750E-11  2.6857E-05  9.9291E-11  3.5327E-04  3.5709E-04                                                                                                                                                                                                                                                                                                                                                                                                                                                                                                                                                                                                            
     625.0000     125.0000   -5425.0000  5.47795E+02  255.120  0.00000E+00  1.00000E+00  1.00001  6.0507  1.0004E-10  1.0003E-10  1.3681E-02  2.6444E-04  9.8750E-11  2.6857E-05  9.9291E-11  3.5327E-04  3.5709E-04                                                                                                                                                                                                                                                                                                                                                                                                                                                                                                                                                                                                            
     760.0000     125.0000   -5425.0000  5.47794E+02  255.119  0.00000E+00  1.00000E+00  1.00001  6.0507  1.0004E-10  1.0003E-10  1.3681E-02  2.6444E-04  9.8750E-11  2.6857E-05  9.9291E-11  3.5327E-04  3.5709E-04                                                                                                                                                                                                                                                                                                                                                                                                                                                                                                                                                                                                            
     780.0000     125.0000   -5425.0000  5.47794E+02  255.119  0.00000E+00  1.00000E+00  1.00001  6.0507  1.0004E-10  1.0003E-10  1.3681E-02  2.6444E-04  9.8750E-11  2.6857E-05  9.9291E-11  3.5327E-04  3.5709E-04                                                                                                                                                                                                                                                                                                                                                                                                                                                                                                                                                                                                            
     800.0000     125.0000   -5425.0000  5.47794E+02  255.119  0.00000E+00  1.00000E+00  1.00001  6.0507  1.0004E-10  1.0003E-10  1.3681E-02  2.6444E-04  9.8750E-11  2.6857E-05  9.9291E-11  3.5327E-04  3.5709E-04                                                                                                                                                                                                                                                                                                                                                                                                                                                                                                                                                                                                            
     935.0000     125.0000   -5425.0000  5.47792E+02  255.119  0.00000E+00  1.00000E+00  1.00001  6.0507  1.0004E-10  1.0003E-10  1.3681E-02  2.6444E-04  9.8750E-11  2.6857E-05  9.9291E-11  3.5327E-04  3.5709E-04                                                                                                                                                                                                                                                                                                                                                                                                                                                                                                                                                                                                            
    1185.0000     125.0000   -5425.0000  5.47789E+02  255.119  0.00000E+00  1.00000E+00  1.00001  6.0507  1.0004E-10  1.0003E-10  1.3681E-02  2.6444E-04  9.8751E-11  2.6857E-05  9.9292E-11  3.5327E-04  3.5709E-04                                                                                                                                                                                                                                                                                                                                                                                                                                                                                                                                                                                                            
    1435.0000     125.0000   -5425.0000  5.47786E+02  255.119  0.00000E+00  1.00000E+00  1.00001  6.0507  1.0004E-10  1.0003E-10  1.3681E-02  2.6444E-04  9.8753E-11  2.6857E-05  9.9293E-11  3.5327E-04  3.5709E-04                                                                                                                                                                                                                                                                                                                                                                                                                                                                                                                                                                                                            
     125.0000     125.0000   -5225.0000  5.31123E+02  238.167  0.00000E+00  1.00000E+00  1.00001  6.2507  1.0003E-10  1.0004E-10  5.6707E-03  2.7267E-04  1.0117E-10  2.9119E-05  1.0069E-10  3.5025E-04  3.4644E-04                                                                                                                                                                                                                                                                                                                                                                                                                                                                                                                                                                                                            
     375.0000     125.0000   -5225.0000  5.31124E+02  238.166  0.00000E+00  1.00000E+00  1.00001  6.2507  1.0003E-10  1.0004E-10  5.6706E-03  2.7267E-04  1.0117E-10  2.9119E-05  1.0069E-10  3.5025E-04  3.4644E-04                                                                                                                                                                                                                                                                                                                                                                                                                                                                                                                                                                                                            
     625.0000     125.0000   -5225.0000  5.31124E+02  238.167  0.00000E+00  1.00000E+00  1.00001  6.2507  1.0003E-10  1.0004E-10  5.6708E-03  2.7267E-04  1.0116E-10  2.9119E-05  1.0069E-10  3.5025E-04  3.4644E-04                                                                                                                                                                                                                                                                                                                                                                                                                                                                                                                                                                                                            
     760.0000     125.0000   -5225.0000  5.31122E+02  238.167  0.00000E+00  1.00000E+00  1.00001  6.2507  1.0003E-10  1.0004E-10  5.6709E-03  2.7267E-04  1.0116E-10  2.9119E-05  1.0069E-10  3.5025E-04  3.4644E-04                                                                                                                                                                                                                                                                                                                                                                                                                                                                                                                                                                                                            
     780.0000     125.0000   -5225.0000  5.31122E+02  238.167  0.00000E+00  1.00000E+00  1.00001  6.2507  1.0003E-10  1.0004E-10  5.6710E-03  2.7267E-04  1.0116E-10  2.9119E-05  1.0069E-10  3.5025E-04  3.4644E-04                                                                                                                                                                                                                                                                                                                                                                                                                                                                                                                                                                                                            
     800.0000     125.0000   -5225.0000  5.31122E+02  238.167  0.00000E+00  1.00000E+00  1.00001  6.2507  1.0003E-10  1.0004E-10  5.6710E-03  2.7267E-04  1.0117E-10  2.9119E-05  1.0069E-10  3.5025E-04  3.4644E-04                                                                                                                                                                                                                                                                                                                                                                                                                                                                                                                                                                                                            
     935.0000     125.0000   -5225.0000  5.31120E+02  238.168  0.00000E+00  1.00000E+00  1.00001  6.2507  1.0003E-10  1.0004E-10  5.6711E-03  2.7267E-04  1.0117E-10  2.9119E-05  1.0069E-10  3.5025E-04  3.4644E-04                                                                                                                                                                                                                                                                                                                                                                                                                                                                                                                                                                                                            
    1185.0000     125.0000   -5225.0000  5.31116E+02  238.170  0.00000E+00  1.00000E+00  1.00001  6.2506  1.0003E-10  1.0004E-10  5.6719E-03  2.7267E-04  1.0117E-10  2.9119E-05  1.0069E-10  3.5025E-04  3.4645E-04                                                                                                                                                                                                                                                                                                                                                                                                                                                                                                                                                                                                            
    1435.0000     125.0000   -5225.0000  5.31113E+02  238.173  0.00000E+00  1.00000E+00  1.00001  6.2506  1.0003E-10  1.0004E-10  5.6728E-03  2.7267E-04  1.0117E-10  2.9119E-05  1.0069E-10  3.5025E-04  3.4645E-04                                                                                                                                                                                                                                                                                                                                                                                                                                                                                                                                                                                                            
     125.0000     125.0000   -4975.0000  5.09923E+02  227.253  0.00000E+00  1.00000E+00  1.00001  6.3904  9.9978E-11  9.9982E-11  3.1885E-03  2.7567E-04  1.0043E-10  3.0526E-05  1.0024E-10  3.4367E-04  3.4193E-04                                                                                                                                                                                                                                                                                                                                                                                                                                                                                                                                                                                                            
     375.0000     125.0000   -4975.0000  5.09926E+02  227.247  0.00000E+00  1.00000E+00  1.00001  6.3905  9.9937E-11  9.9941E-11  3.1876E-03  2.7568E-04  1.0039E-10  3.0527E-05  1.0020E-10  3.4366E-04  3.4194E-04                                                                                                                                                                                                                                                                                                                                                                                                                                                                                                                                                                                                            
     625.0000     125.0000   -4975.0000  5.09928E+02  227.241  0.00000E+00  1.00000E+00  1.00001  6.3906  9.9850E-11  9.9854E-11  3.1865E-03  2.7568E-04  1.0030E-10  3.0528E-05  1.0011E-10  3.4365E-04  3.4193E-04                                                                                                                                                                                                                                                                                                                                                                                                                                                                                                                                                                                                            
     760.0000     125.0000   -4975.0000  5.09926E+02  227.241  0.00000E+00  1.00000E+00  1.00001  6.3906  9.9850E-11  9.9854E-11  3.1866E-03  2.7568E-04  1.0030E-10  3.0528E-05  1.0011E-10  3.4365E-04  3.4193E-04                                                                                                                                                                                                                                                                                                                                                                                                                                                                                                                                                                                                            
     780.0000     125.0000   -4975.0000  5.09925E+02  227.241  0.00000E+00  1.00000E+00  1.00001  6.3906  9.9849E-11  9.9853E-11  3.1866E-03  2.7568E-04  1.0031E-10  3.0528E-05  1.0011E-10  3.4365E-04  3.4193E-04                                                                                                                                                                                                                                                                                                                                                                                                                                                                                                                                                                                                            
     800.0000     125.0000   -4975.0000  5.09925E+02  227.247  0.00000E+00  1.00000E+00  1.00001  6.3905  9.9897E-11  9.9901E-11  3.1875E-03  2.7568E-04  1.0035E-10  3.0527E-05  1.0016E-10  3.4366E-04  3.4194E-04                                                                                                                                                                                                                                                                                                                                                                                                                                                                                                                                                                                                            
     935.0000     125.0000   -4975.0000  5.09921E+02  227.250  0.00000E+00  1.00000E+00  1.00001  6.3905  9.9928E-11  9.9932E-11  3.1881E-03  2.7568E-04  1.0039E-10  3.0526E-05  1.0019E-10  3.4366E-04  3.4194E-04                                                                                                                                                                                                                                                                                                                                                                                                                                                                                                                                                                                                            
    1185.0000     125.0000   -4975.0000  5.09914E+02  227.261  0.00000E+00  1.00000E+00  1.00001  6.3903  9.9981E-11  9.9984E-11  3.1899E-03  2.7567E-04  1.0044E-10  3.0525E-05  1.0025E-10  3.4368E-04  3.4194E-04                                                                                                                                                                                                                                                                                                                                                                                                                                                                                                                                                                                                            
    1435.0000     125.0000   -4975.0000  5.09908E+02  227.272  0.00000E+00  1.00000E+00  1.00001  6.3902  9.9995E-11  9.9999E-11  3.1918E-03  2.7567E-04  1.0046E-10  3.0523E-05  1.0026E-10  3.4369E-04  3.4194E-04                                                                                                                                                                                                                                                                                                                                                                                                                                                                                                                                                                                                            
     125.0000     125.0000   -4725.0000  4.88454E+02  215.819  0.00000E+00  1.00000E+00  1.00001  6.5469  9.6404E-11  9.6404E-11  1.7557E-03  2.7609E-04  9.6455E-11  3.1898E-05  9.6433E-11  3.3575E-04  3.3564E-04                                                                                                                                                                                                                                                                                                                                                                                                                                                                                                                                                                                                            
     375.0000     125.0000   -4725.0000  4.88456E+02  215.411  0.00000E+00  1.00000E+00  1.00001  6.5526  9.5247E-11  9.5247E-11  1.7194E-03  2.7611E-04  9.5238E-11  3.1951E-05  9.5242E-11  3.3534E-04  3.3545E-04                                                                                                                                                                                                                                                                                                                                                                                                                                                                                                                                                                                                            
     625.0000     125.0000   -4725.0000  4.88457E+02  214.712  0.00000E+00  1.00000E+00  1.00001  6.5625  9.3506E-11  9.3505E-11  1.6589E-03  2.7609E-04  9.3447E-11  3.2038E-05  9.3473E-11  3.3474E-04  3.3504E-04                                                                                                                                                                                                                                                                                                                                                                                                                                                                                                                                                                                                            
     760.0000     125.0000   -4725.0000  4.88454E+02  214.678  0.00000E+00  1.00000E+00  1.00001  6.5630  9.3425E-11  9.3424E-11  1.6561E-03  2.7609E-04  9.3372E-11  3.2042E-05  9.3400E-11  3.3471E-04  3.3503E-04                                                                                                                                                                                                                                                                                                                                                                                                                                                                                                                                                                                                            
     780.0000     125.0000   -4725.0000  4.88454E+02  214.659  0.00000E+00  1.00000E+00  1.00001  6.5633  9.3388E-11  9.3388E-11  1.6545E-03  2.7609E-04  9.3515E-11  3.2044E-05  9.3543E-11  3.3469E-04  3.3501E-04                                                                                                                                                                                                                                                                                                                                                                                                                                                                                                                                                                                                            
     800.0000     125.0000   -4725.0000  4.88453E+02  215.197  0.00000E+00  1.00000E+00  1.00001  6.5557  9.4438E-11  9.4437E-11  1.7006E-03  2.7612E-04  9.4547E-11  3.1979E-05  9.4564E-11  3.3512E-04  3.3536E-04                                                                                                                                                                                                                                                                                                                                                                                                                                                                                                                                                                                                            
     935.0000     125.0000   -4725.0000  4.88450E+02  215.462  0.00000E+00  1.00000E+00  1.00001  6.5519  9.5084E-11  9.5084E-11  1.7239E-03  2.7611E-04  9.5204E-11  3.1945E-05  9.5205E-11  3.3538E-04  3.3548E-04                                                                                                                                                                                                                                                                                                                                                                                                                                                                                                                                                                                                            
    1185.0000     125.0000   -4725.0000  4.88442E+02  215.943  0.00000E+00  1.00000E+00  1.00001  6.5452  9.6522E-11  9.6522E-11  1.7670E-03  2.7608E-04  9.6678E-11  3.1882E-05  9.6647E-11  3.3586E-04  3.3571E-04                                                                                                                                                                                                                                                                                                                                                                                                                                                                                                                                                                                                            