Title="TOUGHREACT V3.30-OMP: Aqueous Total & Species Concentrations in mol/kg h2o, Surface & Exchanged Species in mol/kg h2o, Dry blocks in mol/L medium"                                                                                                                                                                                                                                                                                                                                                                                                                                                                                                                                                                                                                                                                       
Variables= "X(m)"   "Y(m)"   "Z(m)"   "P(bar)"     "T(C)"   "SatGas"   "SatLiq"     "aH2O"       "pH"        "t_na+"        "t_cl-"      "t_hco3-"       "t_ca+2"      "t_so4-2"       "t_mg+2"       "t_ba+2"       "t_al+3"     "t_h4sio4"                                                                                                                                                                                                                                                                                                                                                                                                                                                                                                                                                                                    
Zone T= "2.11047346E+03 yr" I=      9J=     10K=     23F=Point 
     125.0000     125.0000   -5425.0000  5.47688E+02  260.599  0.00000E+00  1.00000E+00  1.00001  5.9907  1.0006E-10  1.0002E-10  1.8070E-02  2.6084E-04  9.7218E-11  2.6091E-05  9.8406E-11  3.5320E-04  3.6148E-04                                                                                                                                                                                                                                                                                                                                                                                                                                                                                                                                                                                                            
     375.0000     125.0000   -5425.0000  5.47689E+02  260.600  0.00000E+00  1.00000E+00  1.00001  5.9907  1.0006E-10  1.0002E-10  1.8071E-02  2.6084E-04  9.7217E-11  2.6091E-05  9.8405E-11  3.5320E-04  3.6148E-04                                                                                                                                                                                                                                                                                                                                                                                                                                                                                                                                                                                                            
     625.0000     125.0000   -5425.0000  5.47689E+02  260.600  0.00000E+00  1.00000E+00  1.00001  5.9907  1.0006E-10  1.0002E-10  1.8071E-02  2.6084E-04  9.7217E-11  2.6091E-05  9.8404E-11  3.5320E-04  3.6148E-04                                                                                                                                                                                                                                                                                                                                                                                                                                                                                                                                                                                                            
     760.0000     125.0000   -5425.0000  5.47688E+02  260.600  0.00000E+00  1.00000E+00  1.00001  5.9907  1.0006E-10  1.0002E-10  1.8071E-02  2.6084E-04  9.7217E-11  2.6091E-05  9.8405E-11  3.5320E-04  3.6148E-04                                                                                                                                                                                                                                                                                                                                                                                                                                                                                                                                                                                                            
     780.0000     125.0000   -5425.0000  5.47688E+02  260.600  0.00000E+00  1.00000E+00  1.00001  5.9907  1.0006E-10  1.0002E-10  1.8071E-02  2.6084E-04  9.7217E-11  2.6091E-05  9.8405E-11  3.5320E-04  3.6148E-04                                                                                                                                                                                                                                                                                                                                                                                                                                                                                                                                                                                                            
     800.0000     125.0000   -5425.0000  5.47688E+02  260.600  0.00000E+00  1.00000E+00  1.00001  5.9907  1.0006E-10  1.0002E-10  1.8071E-02  2.6084E-04  9.7217E-11  2.6091E-05  9.8405E-11  3.5320E-04  3.6148E-04                                                                                                                                                                                                                                                                                                                                                                                                                                                                                                                                                                                                            
     935.0000     125.0000   -5425.0000  5.47687E+02  260.600  0.00000E+00  1.00000E+00  1.00001  5.9907  1.0006E-10  1.0002E-10  1.8071E-02  2.6084E-04  9.7218E-11  2.6091E-05  9.8405E-11  3.5320E-04  3.6148E-04                                                                                                                                                                                                                                                                                                                                                                                                                                                                                                                                                                                                            
    1185.0000     125.0000   -5425.0000  5.47684E+02  260.600  0.00000E+00  1.00000E+00  1.00001  5.9907  1.0006E-10  1.0002E-10  1.8071E-02  2.6084E-04  9.7219E-11  2.6091E-05  9.8407E-11  3.5320E-04  3.6148E-04                                                                                                                                                                                                                                                                                                                                                                                                                                                                                                                                                                                                            
    1435.0000     125.0000   -5425.0000  5.47682E+02  260.600  0.00000E+00  1.00000E+00  1.00001  5.9907  1.0006E-10  1.0002E-10  1.8071E-02  2.6084E-04  9.7220E-11  2.6091E-05  9.8408E-11  3.5320E-04  3.6148E-04                                                                                                                                                                                                                                                                                                                                                                                                                                                                                                                                                                                                            
     125.0000     125.0000   -5225.0000  5.31081E+02  238.193  0.00000E+00  1.00000E+00  1.00001  6.2506  1.0003E-10  1.0005E-10  5.6788E-03  2.7238E-04  1.0190E-10  2.9087E-05  1.0111E-10  3.5159E-04  3.4534E-04                                                                                                                                                                                                                                                                                                                                                                                                                                                                                                                                                                                                            
     375.0000     125.0000   -5225.0000  5.31082E+02  238.192  0.00000E+00  1.00000E+00  1.00001  6.2506  1.0003E-10  1.0005E-10  5.6785E-03  2.7238E-04  1.0190E-10  2.9087E-05  1.0111E-10  3.5159E-04  3.4534E-04                                                                                                                                                                                                                                                                                                                                                                                                                                                                                                                                                                                                            
     625.0000     125.0000   -5225.0000  5.31082E+02  238.192  0.00000E+00  1.00000E+00  1.00001  6.2506  1.0003E-10  1.0004E-10  5.6786E-03  2.7238E-04  1.0189E-10  2.9087E-05  1.0111E-10  3.5159E-04  3.4534E-04                                                                                                                                                                                                                                                                                                                                                                                                                                                                                                                                                                                                            
     760.0000     125.0000   -5225.0000  5.31081E+02  238.193  0.00000E+00  1.00000E+00  1.00001  6.2506  1.0003E-10  1.0004E-10  5.6787E-03  2.7238E-04  1.0189E-10  2.9087E-05  1.0111E-10  3.5159E-04  3.4534E-04                                                                                                                                                                                                                                                                                                                                                                                                                                                                                                                                                                                                            
     780.0000     125.0000   -5225.0000  5.31081E+02  238.193  0.00000E+00  1.00000E+00  1.00001  6.2506  1.0003E-10  1.0004E-10  5.6788E-03  2.7238E-04  1.0189E-10  2.9087E-05  1.0111E-10  3.5159E-04  3.4534E-04                                                                                                                                                                                                                                                                                                                                                                                                                                                                                                                                                                                                            
     800.0000     125.0000   -5225.0000  5.31081E+02  238.193  0.00000E+00  1.00000E+00  1.00001  6.2506  1.0003E-10  1.0005E-10  5.6788E-03  2.7238E-04  1.0189E-10  2.9087E-05  1.0111E-10  3.5159E-04  3.4534E-04                                                                                                                                                                                                                                                                                                                                                                                                                                                                                                                                                                                                            
     935.0000     125.0000   -5225.0000  5.31080E+02  238.194  0.00000E+00  1.00000E+00  1.00001  6.2506  1.0003E-10  1.0005E-10  5.6791E-03  2.7237E-04  1.0190E-10  2.9087E-05  1.0111E-10  3.5159E-04  3.4534E-04                                                                                                                                                                                                                                                                                                                                                                                                                                                                                                                                                                                                            
    1185.0000     125.0000   -5225.0000  5.31077E+02  238.198  0.00000E+00  1.00000E+00  1.00001  6.2505  1.0003E-10  1.0005E-10  5.6801E-03  2.7237E-04  1.0190E-10  2.9087E-05  1.0111E-10  3.5159E-04  3.4534E-04                                                                                                                                                                                                                                                                                                                                                                                                                                                                                                                                                                                                            
    1435.0000     125.0000   -5225.0000  5.31074E+02  238.201  0.00000E+00  1.00000E+00  1.00001  6.2505  1.0003E-10  1.0005E-10  5.6812E-03  2.7237E-04  1.0190E-10  2.9086E-05  1.0111E-10  3.5159E-04  3.4534E-04                                                                                                                                                                                                                                                                                                                                                                                                                                                                                                                                                                                                            
     125.0000     125.0000   -4975.0000  5.09881E+02  227.269  0.00000E+00  1.00000E+00  1.00001  6.3903  9.9978E-11  9.9985E-11  3.1913E-03  2.7553E-04  1.0074E-10  3.0509E-05  1.0042E-10  3.4429E-04  3.4143E-04                                                                                                                                                                                                                                                                                                                                                                                                                                                                                                                                                                                                            
     375.0000     125.0000   -4975.0000  5.09883E+02  227.262  0.00000E+00  1.00000E+00  1.00001  6.3904  9.9937E-11  9.9943E-11  3.1902E-03  2.7553E-04  1.0069E-10  3.0510E-05  1.0037E-10  3.4428E-04  3.4143E-04                                                                                                                                                                                                                                                                                                                                                                                                                                                                                                                                                                                                            
     625.0000     125.0000   -4975.0000  5.09886E+02  227.254  0.00000E+00  1.00000E+00  1.00001  6.3905  9.9850E-11  9.9856E-11  3.1889E-03  2.7554E-04  1.0060E-10  3.0512E-05  1.0028E-10  3.4427E-04  3.4143E-04                                                                                                                                                                                                                                                                                                                                                                                                                                                                                                                                                                                                            
     760.0000     125.0000   -4975.0000  5.09885E+02  227.255  0.00000E+00  1.00000E+00  1.00001  6.3905  9.9850E-11  9.9856E-11  3.1890E-03  2.7554E-04  1.0060E-10  3.0511E-05  1.0028E-10  3.4427E-04  3.4143E-04                                                                                                                                                                                                                                                                                                                                                                                                                                                                                                                                                                                                            
     780.0000     125.0000   -4975.0000  5.09884E+02  227.255  0.00000E+00  1.00000E+00  1.00001  6.3905  9.9849E-11  9.9856E-11  3.1890E-03  2.7554E-04  1.0061E-10  3.0511E-05  1.0029E-10  3.4427E-04  3.4143E-04                                                                                                                                                                                                                                                                                                                                                                                                                                                                                                                                                                                                            
     800.0000     125.0000   -4975.0000  5.09884E+02  227.261  0.00000E+00  1.00000E+00  1.00001  6.3904  9.9896E-11  9.9903E-11  3.1900E-03  2.7554E-04  1.0065E-10  3.0511E-05  1.0033E-10  3.4428E-04  3.4143E-04                                                                                                                                                                                                                                                                                                                                                                                                                                                                                                                                                                                                            
     935.0000     125.0000   -4975.0000  5.09881E+02  227.265  0.00000E+00  1.00000E+00  1.00001  6.3904  9.9928E-11  9.9935E-11  3.1907E-03  2.7553E-04  1.0069E-10  3.0510E-05  1.0037E-10  3.4428E-04  3.4143E-04                                                                                                                                                                                                                                                                                                                                                                                                                                                                                                                                                                                                            
    1185.0000     125.0000   -4975.0000  5.09876E+02  227.278  0.00000E+00  1.00000E+00  1.00001  6.3902  9.9981E-11  9.9987E-11  3.1928E-03  2.7553E-04  1.0074E-10  3.0508E-05  1.0042E-10  3.4430E-04  3.4143E-04                                                                                                                                                                                                                                                                                                                                                                                                                                                                                                                                                                                                            
    1435.0000     125.0000   -4975.0000  5.09872E+02  227.290  0.00000E+00  1.00000E+00  1.00001  6.3901  9.9995E-11  1.0000E-10  3.1949E-03  2.7552E-04  1.0076E-10  3.0506E-05  1.0044E-10  3.4431E-04  3.4143E-04                                                                                                                                                                                                                                                                                                                                                                                                                                                                                                                                                                                                            
     125.0000     125.0000   -4725.0000  4.88410E+02  215.838  0.00000E+00  1.00000E+00  1.00001  6.5467  9.6442E-11  9.6443E-11  1.7575E-03  2.7604E-04  9.6583E-11  3.1890E-05  9.6521E-11  3.3598E-04  3.3547E-04                                                                                                                                                                                                                                                                                                                                                                                                                                                                                                                                                                                                            
     375.0000     125.0000   -4725.0000  4.88412E+02  215.429  0.00000E+00  1.00000E+00  1.00001  6.5524  9.5284E-11  9.5284E-11  1.7210E-03  2.7606E-04  9.5358E-11  3.1944E-05  9.5326E-11  3.3556E-04  3.3529E-04                                                                                                                                                                                                                                                                                                                                                                                                                                                                                                                                                                                                            
     625.0000     125.0000   -4725.0000  4.88413E+02  214.725  0.00000E+00  1.00000E+00  1.00001  6.5624  9.3534E-11  9.3534E-11  1.6601E-03  2.7605E-04  9.3549E-11  3.2031E-05  9.3542E-11  3.3494E-04  3.3489E-04                                                                                                                                                                                                                                                                                                                                                                                                                                                                                                                                                                                                            
     760.0000     125.0000   -4725.0000  4.88412E+02  214.692  0.00000E+00  1.00000E+00  1.00001  6.5629  9.3449E-11  9.3449E-11  1.6572E-03  2.7605E-04  9.3473E-11  3.2036E-05  9.3468E-11  3.3490E-04  3.3488E-04                                                                                                                                                                                                                                                                                                                                                                                                                                                                                                                                                                                                            
     780.0000     125.0000   -4725.0000  4.88412E+02  214.672  0.00000E+00  1.00000E+00  1.00001  6.5631  9.3425E-11  9.3425E-11  1.6556E-03  2.7605E-04  9.3621E-11  3.2038E-05  9.3617E-11  3.3489E-04  3.3486E-04                                                                                                                                                                                                                                                                                                                                                                                                                                                                                                                                                                                                            
     800.0000     125.0000   -4725.0000  4.88412E+02  215.212  0.00000E+00  1.00000E+00  1.00001  6.5555  9.4455E-11  9.4456E-11  1.7020E-03  2.7607E-04  9.4645E-11  3.1972E-05  9.4628E-11  3.3533E-04  3.3520E-04                                                                                                                                                                                                                                                                                                                                                                                                                                                                                                                                                                                                            
     935.0000     125.0000   -4725.0000  4.88410E+02  215.480  0.00000E+00  1.00000E+00  1.00001  6.5517  9.5123E-11  9.5124E-11  1.7255E-03  2.7606E-04  9.5326E-11  3.1937E-05  9.5291E-11  3.3560E-04  3.3532E-04                                                                                                                                                                                                                                                                                                                                                                                                                                                                                                                                                                                                            
    1185.0000     125.0000   -4725.0000  4.88407E+02  215.963  0.00000E+00  1.00000E+00  1.00001  6.5449  9.6562E-11  9.6563E-11  1.7688E-03  2.7603E-04  9.6808E-11  3.1874E-05  9.6738E-11  3.3609E-04  3.3554E-04                                                                                                                                                                                                                                                                                                                                                                                                                                                                                                                                                                                                            