Title="TOUGHREACT V3.30-OMP: Aqueous Total & Species Concentrations in mol/kg h2o, Surface & Exchanged Species in mol/kg h2o, Dry blocks in mol/L medium"                                                                                                                                                                                                                                                                                                                                                                                                                                                                                                                                                                                                                                                                       
Variables= "X(m)"   "Y(m)"   "Z(m)"   "P(bar)"     "T(C)"   "SatGas"   "SatLiq"     "aH2O"       "pH"        "t_na+"        "t_cl-"      "t_hco3-"       "t_ca+2"      "t_so4-2"       "t_mg+2"       "t_ba+2"       "t_al+3"     "t_h4sio4"                                                                                                                                                                                                                                                                                                                                                                                                                                                                                                                                                                                    
Zone T= "6.33775814E+02 yr" I=      9J=     10K=     23F=Point 
     125.0000     125.0000   -5425.0000  5.47590E+02  250.999  0.00000E+00  1.00000E+00  1.00001  6.0973  1.0003E-10  1.0003E-10  1.1073E-02  2.6690E-04  9.9593E-11  2.7426E-05  9.9777E-11  3.5293E-04  3.5424E-04                                                                                                                                                                                                                                                                                                                                                                                                                                                                                                                                                                                                            
     375.0000     125.0000   -5425.0000  5.47589E+02  250.999  0.00000E+00  1.00000E+00  1.00001  6.0973  1.0003E-10  1.0003E-10  1.1073E-02  2.6690E-04  9.9593E-11  2.7426E-05  9.9777E-11  3.5293E-04  3.5424E-04                                                                                                                                                                                                                                                                                                                                                                                                                                                                                                                                                                                                            
     625.0000     125.0000   -5425.0000  5.47586E+02  251.000  0.00000E+00  1.00000E+00  1.00001  6.0973  1.0003E-10  1.0003E-10  1.1074E-02  2.6690E-04  9.9592E-11  2.7425E-05  9.9777E-11  3.5293E-04  3.5424E-04                                                                                                                                                                                                                                                                                                                                                                                                                                                                                                                                                                                                            
     760.0000     125.0000   -5425.0000  5.47582E+02  251.000  0.00000E+00  1.00000E+00  1.00001  6.0973  1.0003E-10  1.0003E-10  1.1073E-02  2.6690E-04  9.9592E-11  2.7425E-05  9.9777E-11  3.5293E-04  3.5424E-04                                                                                                                                                                                                                                                                                                                                                                                                                                                                                                                                                                                                            
     780.0000     125.0000   -5425.0000  5.47582E+02  251.000  0.00000E+00  1.00000E+00  1.00001  6.0973  1.0003E-10  1.0003E-10  1.1073E-02  2.6690E-04  9.9592E-11  2.7425E-05  9.9777E-11  3.5293E-04  3.5424E-04                                                                                                                                                                                                                                                                                                                                                                                                                                                                                                                                                                                                            
     800.0000     125.0000   -5425.0000  5.47581E+02  251.000  0.00000E+00  1.00000E+00  1.00001  6.0973  1.0003E-10  1.0003E-10  1.1073E-02  2.6690E-04  9.9592E-11  2.7426E-05  9.9777E-11  3.5293E-04  3.5424E-04                                                                                                                                                                                                                                                                                                                                                                                                                                                                                                                                                                                                            
     935.0000     125.0000   -5425.0000  5.47577E+02  251.000  0.00000E+00  1.00000E+00  1.00001  6.0973  1.0003E-10  1.0003E-10  1.1073E-02  2.6690E-04  9.9593E-11  2.7426E-05  9.9777E-11  3.5293E-04  3.5424E-04                                                                                                                                                                                                                                                                                                                                                                                                                                                                                                                                                                                                            
    1185.0000     125.0000   -5425.0000  5.47568E+02  250.999  0.00000E+00  1.00000E+00  1.00001  6.0973  1.0004E-10  1.0003E-10  1.1073E-02  2.6690E-04  9.9593E-11  2.7426E-05  9.9778E-11  3.5293E-04  3.5424E-04                                                                                                                                                                                                                                                                                                                                                                                                                                                                                                                                                                                                            
    1435.0000     125.0000   -5425.0000  5.47562E+02  250.999  0.00000E+00  1.00000E+00  1.00001  6.0973  1.0004E-10  1.0003E-10  1.1073E-02  2.6690E-04  9.9594E-11  2.7426E-05  9.9778E-11  3.5293E-04  3.5424E-04                                                                                                                                                                                                                                                                                                                                                                                                                                                                                                                                                                                                            
     125.0000     125.0000   -5225.0000  5.30872E+02  238.150  0.00000E+00  1.00000E+00  1.00001  6.2507  1.0003E-10  1.0004E-10  5.6658E-03  2.7290E-04  1.0061E-10  2.9144E-05  1.0037E-10  3.4924E-04  3.4729E-04                                                                                                                                                                                                                                                                                                                                                                                                                                                                                                                                                                                                            
     375.0000     125.0000   -5225.0000  5.30872E+02  238.150  0.00000E+00  1.00000E+00  1.00001  6.2507  1.0003E-10  1.0004E-10  5.6658E-03  2.7290E-04  1.0061E-10  2.9144E-05  1.0037E-10  3.4924E-04  3.4729E-04                                                                                                                                                                                                                                                                                                                                                                                                                                                                                                                                                                                                            
     625.0000     125.0000   -5225.0000  5.30869E+02  238.151  0.00000E+00  1.00000E+00  1.00001  6.2507  1.0003E-10  1.0004E-10  5.6660E-03  2.7290E-04  1.0061E-10  2.9144E-05  1.0037E-10  3.4924E-04  3.4729E-04                                                                                                                                                                                                                                                                                                                                                                                                                                                                                                                                                                                                            
     760.0000     125.0000   -5225.0000  5.30864E+02  238.151  0.00000E+00  1.00000E+00  1.00001  6.2507  1.0003E-10  1.0004E-10  5.6661E-03  2.7290E-04  1.0061E-10  2.9144E-05  1.0037E-10  3.4924E-04  3.4729E-04                                                                                                                                                                                                                                                                                                                                                                                                                                                                                                                                                                                                            
     780.0000     125.0000   -5225.0000  5.30864E+02  238.151  0.00000E+00  1.00000E+00  1.00001  6.2507  1.0003E-10  1.0004E-10  5.6661E-03  2.7290E-04  1.0061E-10  2.9144E-05  1.0037E-10  3.4924E-04  3.4729E-04                                                                                                                                                                                                                                                                                                                                                                                                                                                                                                                                                                                                            
     800.0000     125.0000   -5225.0000  5.30863E+02  238.151  0.00000E+00  1.00000E+00  1.00001  6.2507  1.0003E-10  1.0004E-10  5.6661E-03  2.7290E-04  1.0061E-10  2.9144E-05  1.0037E-10  3.4924E-04  3.4729E-04                                                                                                                                                                                                                                                                                                                                                                                                                                                                                                                                                                                                            
     935.0000     125.0000   -5225.0000  5.30858E+02  238.151  0.00000E+00  1.00000E+00  1.00001  6.2507  1.0003E-10  1.0004E-10  5.6661E-03  2.7290E-04  1.0061E-10  2.9144E-05  1.0037E-10  3.4924E-04  3.4729E-04                                                                                                                                                                                                                                                                                                                                                                                                                                                                                                                                                                                                            
    1185.0000     125.0000   -5225.0000  5.30847E+02  238.153  0.00000E+00  1.00000E+00  1.00001  6.2506  1.0003E-10  1.0004E-10  5.6666E-03  2.7290E-04  1.0061E-10  2.9143E-05  1.0037E-10  3.4924E-04  3.4729E-04                                                                                                                                                                                                                                                                                                                                                                                                                                                                                                                                                                                                            
    1435.0000     125.0000   -5225.0000  5.30839E+02  238.155  0.00000E+00  1.00000E+00  1.00001  6.2506  1.0003E-10  1.0004E-10  5.6672E-03  2.7290E-04  1.0061E-10  2.9143E-05  1.0037E-10  3.4924E-04  3.4729E-04                                                                                                                                                                                                                                                                                                                                                                                                                                                                                                                                                                                                            
     125.0000     125.0000   -4975.0000  5.09677E+02  227.240  0.00000E+00  1.00000E+00  1.00001  6.3905  9.9978E-11  9.9980E-11  3.1863E-03  2.7578E-04  1.0021E-10  3.0538E-05  1.0011E-10  3.4320E-04  3.4232E-04                                                                                                                                                                                                                                                                                                                                                                                                                                                                                                                                                                                                            
     375.0000     125.0000   -4975.0000  5.09680E+02  227.235  0.00000E+00  1.00000E+00  1.00001  6.3906  9.9937E-11  9.9939E-11  3.1856E-03  2.7578E-04  1.0017E-10  3.0539E-05  1.0007E-10  3.4320E-04  3.4232E-04                                                                                                                                                                                                                                                                                                                                                                                                                                                                                                                                                                                                            
     625.0000     125.0000   -4975.0000  5.09679E+02  227.230  0.00000E+00  1.00000E+00  1.00001  6.3906  9.9850E-11  9.9852E-11  3.1846E-03  2.7579E-04  1.0008E-10  3.0540E-05  9.9981E-11  3.4319E-04  3.4232E-04                                                                                                                                                                                                                                                                                                                                                                                                                                                                                                                                                                                                            
     760.0000     125.0000   -4975.0000  5.09672E+02  227.230  0.00000E+00  1.00000E+00  1.00001  6.3906  9.9850E-11  9.9852E-11  3.1846E-03  2.7579E-04  1.0008E-10  3.0540E-05  9.9982E-11  3.4319E-04  3.4232E-04                                                                                                                                                                                                                                                                                                                                                                                                                                                                                                                                                                                                            
     780.0000     125.0000   -4975.0000  5.09671E+02  227.230  0.00000E+00  1.00000E+00  1.00001  6.3906  9.9848E-11  9.9850E-11  3.1846E-03  2.7579E-04  1.0008E-10  3.0540E-05  9.9985E-11  3.4319E-04  3.4232E-04                                                                                                                                                                                                                                                                                                                                                                                                                                                                                                                                                                                                            
     800.0000     125.0000   -4975.0000  5.09670E+02  227.235  0.00000E+00  1.00000E+00  1.00001  6.3906  9.9898E-11  9.9900E-11  3.1855E-03  2.7579E-04  1.0013E-10  3.0539E-05  1.0003E-10  3.4319E-04  3.4232E-04                                                                                                                                                                                                                                                                                                                                                                                                                                                                                                                                                                                                            
     935.0000     125.0000   -4975.0000  5.09662E+02  227.237  0.00000E+00  1.00000E+00  1.00001  6.3905  9.9927E-11  9.9929E-11  3.1859E-03  2.7578E-04  1.0016E-10  3.0539E-05  1.0006E-10  3.4320E-04  3.4232E-04                                                                                                                                                                                                                                                                                                                                                                                                                                                                                                                                                                                                            
    1185.0000     125.0000   -4975.0000  5.09642E+02  227.246  0.00000E+00  1.00000E+00  1.00001  6.3904  9.9980E-11  9.9982E-11  3.1873E-03  2.7578E-04  1.0022E-10  3.0538E-05  1.0012E-10  3.4321E-04  3.4232E-04                                                                                                                                                                                                                                                                                                                                                                                                                                                                                                                                                                                                            
    1435.0000     125.0000   -4975.0000  5.09625E+02  227.255  0.00000E+00  1.00000E+00  1.00001  6.3903  9.9994E-11  9.9996E-11  3.1888E-03  2.7578E-04  1.0023E-10  3.0536E-05  1.0013E-10  3.4322E-04  3.4232E-04                                                                                                                                                                                                                                                                                                                                                                                                                                                                                                                                                                                                            
     125.0000     125.0000   -4725.0000  4.88214E+02  215.804  0.00000E+00  1.00000E+00  1.00001  6.5471  9.6377E-11  9.6377E-11  1.7544E-03  2.7613E-04  9.6362E-11  3.1904E-05  9.6369E-11  3.3558E-04  3.3577E-04                                                                                                                                                                                                                                                                                                                                                                                                                                                                                                                                                                                                            
     375.0000     125.0000   -4725.0000  4.88220E+02  215.398  0.00000E+00  1.00000E+00  1.00001  6.5528  9.5226E-11  9.5225E-11  1.7182E-03  2.7614E-04  9.5155E-11  3.1956E-05  9.5185E-11  3.3518E-04  3.3557E-04                                                                                                                                                                                                                                                                                                                                                                                                                                                                                                                                                                                                            
     625.0000     125.0000   -4725.0000  4.88219E+02  214.703  0.00000E+00  1.00000E+00  1.00001  6.5626  9.3497E-11  9.3496E-11  1.6582E-03  2.7612E-04  9.3383E-11  3.2042E-05  9.3433E-11  3.3460E-04  3.3515E-04                                                                                                                                                                                                                                                                                                                                                                                                                                                                                                                                                                                                            
     760.0000     125.0000   -4725.0000  4.88210E+02  214.677  0.00000E+00  1.00000E+00  1.00001  6.5630  9.3438E-11  9.3438E-11  1.6560E-03  2.7613E-04  9.3331E-11  3.2045E-05  9.3382E-11  3.3457E-04  3.3514E-04                                                                                                                                                                                                                                                                                                                                                                                                                                                                                                                                                                                                            
     780.0000     125.0000   -4725.0000  4.88208E+02  214.660  0.00000E+00  1.00000E+00  1.00001  6.5632  9.3399E-11  9.3398E-11  1.6545E-03  2.7613E-04  9.3476E-11  3.2048E-05  9.3528E-11  3.3456E-04  3.3513E-04                                                                                                                                                                                                                                                                                                                                                                                                                                                                                                                                                                                                            
     800.0000     125.0000   -4725.0000  4.88206E+02  215.187  0.00000E+00  1.00000E+00  1.00001  6.5558  9.4440E-11  9.4439E-11  1.6998E-03  2.7615E-04  9.4490E-11  3.1984E-05  9.4533E-11  3.3496E-04  3.3548E-04                                                                                                                                                                                                                                                                                                                                                                                                                                                                                                                                                                                                            
     935.0000     125.0000   -4725.0000  4.88194E+02  215.447  0.00000E+00  1.00000E+00  1.00001  6.5521  9.5055E-11  9.5055E-11  1.7226E-03  2.7614E-04  9.5113E-11  3.1950E-05  9.5141E-11  3.3522E-04  3.3561E-04                                                                                                                                                                                                                                                                                                                                                                                                                                                                                                                                                                                                            
    1185.0000     125.0000   -4725.0000  4.88161E+02  215.924  0.00000E+00  1.00000E+00  1.00001  6.5454  9.6484E-11  9.6484E-11  1.7652E-03  2.7612E-04  9.6572E-11  3.1888E-05  9.6571E-11  3.3568E-04  3.3584E-04                                                                                                                                                                                                                                                                                                                                                                                                                                                                                                                                                                                                            