Title="TOUGHREACT V3.30-OMP: Aqueous Total & Species Concentrations in mol/kg h2o, Surface & Exchanged Species in mol/kg h2o, Dry blocks in mol/L medium"                                                                                                                                                                                                                                                                                                                                                                                                                                                                                                                                                                                                                                                                       
Variables= "X(m)"   "Y(m)"   "Z(m)"   "P(bar)"     "T(C)"   "SatGas"   "SatLiq"     "aH2O"       "pH"        "t_na+"        "t_cl-"      "t_hco3-"       "t_ca+2"      "t_so4-2"       "t_mg+2"       "t_ba+2"       "t_al+3"     "t_h4sio4"                                                                                                                                                                                                                                                                                                                                                                                                                                                                                                                                                                                    
Zone T= "2.42736137E+03 yr" I=      9J=     10K=     23F=Point 
     125.0000     125.0000   -5425.0000  5.47644E+02  262.661  0.00000E+00  1.00000E+00  1.00001  5.9686  1.0006E-10  1.0001E-10  2.0046E-02  2.5940E-04  9.6493E-11  2.5800E-05  9.7985E-11  3.5300E-04  3.6337E-04                                                                                                                                                                                                                                                                                                                                                                                                                                                                                                                                                                                                            
     375.0000     125.0000   -5425.0000  5.47645E+02  262.661  0.00000E+00  1.00000E+00  1.00001  5.9686  1.0006E-10  1.0001E-10  2.0046E-02  2.5940E-04  9.6492E-11  2.5800E-05  9.7985E-11  3.5300E-04  3.6337E-04                                                                                                                                                                                                                                                                                                                                                                                                                                                                                                                                                                                                            
     625.0000     125.0000   -5425.0000  5.47645E+02  262.662  0.00000E+00  1.00000E+00  1.00001  5.9686  1.0006E-10  1.0001E-10  2.0047E-02  2.5940E-04  9.6492E-11  2.5800E-05  9.7984E-11  3.5300E-04  3.6337E-04                                                                                                                                                                                                                                                                                                                                                                                                                                                                                                                                                                                                            
     760.0000     125.0000   -5425.0000  5.47644E+02  262.662  0.00000E+00  1.00000E+00  1.00001  5.9686  1.0006E-10  1.0001E-10  2.0047E-02  2.5940E-04  9.6492E-11  2.5800E-05  9.7984E-11  3.5300E-04  3.6337E-04                                                                                                                                                                                                                                                                                                                                                                                                                                                                                                                                                                                                            
     780.0000     125.0000   -5425.0000  5.47644E+02  262.662  0.00000E+00  1.00000E+00  1.00001  5.9686  1.0006E-10  1.0001E-10  2.0046E-02  2.5940E-04  9.6492E-11  2.5800E-05  9.7984E-11  3.5300E-04  3.6337E-04                                                                                                                                                                                                                                                                                                                                                                                                                                                                                                                                                                                                            
     800.0000     125.0000   -5425.0000  5.47644E+02  262.662  0.00000E+00  1.00000E+00  1.00001  5.9686  1.0006E-10  1.0001E-10  2.0046E-02  2.5940E-04  9.6492E-11  2.5800E-05  9.7984E-11  3.5300E-04  3.6337E-04                                                                                                                                                                                                                                                                                                                                                                                                                                                                                                                                                                                                            
     935.0000     125.0000   -5425.0000  5.47643E+02  262.661  0.00000E+00  1.00000E+00  1.00001  5.9686  1.0006E-10  1.0001E-10  2.0046E-02  2.5940E-04  9.6493E-11  2.5800E-05  9.7985E-11  3.5300E-04  3.6337E-04                                                                                                                                                                                                                                                                                                                                                                                                                                                                                                                                                                                                            
    1185.0000     125.0000   -5425.0000  5.47640E+02  262.661  0.00000E+00  1.00000E+00  1.00001  5.9686  1.0006E-10  1.0001E-10  2.0046E-02  2.5940E-04  9.6494E-11  2.5800E-05  9.7986E-11  3.5300E-04  3.6337E-04                                                                                                                                                                                                                                                                                                                                                                                                                                                                                                                                                                                                            
    1435.0000     125.0000   -5425.0000  5.47638E+02  262.661  0.00000E+00  1.00000E+00  1.00001  5.9686  1.0006E-10  1.0002E-10  2.0046E-02  2.5940E-04  9.6496E-11  2.5800E-05  9.7988E-11  3.5300E-04  3.6337E-04                                                                                                                                                                                                                                                                                                                                                                                                                                                                                                                                                                                                            
     125.0000     125.0000   -5225.0000  5.31061E+02  238.205  0.00000E+00  1.00000E+00  1.00001  6.2505  1.0003E-10  1.0005E-10  5.6825E-03  2.7226E-04  1.0217E-10  2.9075E-05  1.0127E-10  3.5209E-04  3.4493E-04                                                                                                                                                                                                                                                                                                                                                                                                                                                                                                                                                                                                            
     375.0000     125.0000   -5225.0000  5.31062E+02  238.204  0.00000E+00  1.00000E+00  1.00001  6.2505  1.0003E-10  1.0005E-10  5.6821E-03  2.7227E-04  1.0217E-10  2.9075E-05  1.0127E-10  3.5209E-04  3.4493E-04                                                                                                                                                                                                                                                                                                                                                                                                                                                                                                                                                                                                            
     625.0000     125.0000   -5225.0000  5.31063E+02  238.204  0.00000E+00  1.00000E+00  1.00001  6.2505  1.0002E-10  1.0005E-10  5.6821E-03  2.7226E-04  1.0217E-10  2.9075E-05  1.0127E-10  3.5209E-04  3.4492E-04                                                                                                                                                                                                                                                                                                                                                                                                                                                                                                                                                                                                            
     760.0000     125.0000   -5225.0000  5.31062E+02  238.205  0.00000E+00  1.00000E+00  1.00001  6.2505  1.0002E-10  1.0005E-10  5.6823E-03  2.7226E-04  1.0217E-10  2.9075E-05  1.0127E-10  3.5209E-04  3.4493E-04                                                                                                                                                                                                                                                                                                                                                                                                                                                                                                                                                                                                            
     780.0000     125.0000   -5225.0000  5.31062E+02  238.205  0.00000E+00  1.00000E+00  1.00001  6.2505  1.0002E-10  1.0005E-10  5.6823E-03  2.7226E-04  1.0217E-10  2.9075E-05  1.0127E-10  3.5209E-04  3.4493E-04                                                                                                                                                                                                                                                                                                                                                                                                                                                                                                                                                                                                            
     800.0000     125.0000   -5225.0000  5.31062E+02  238.205  0.00000E+00  1.00000E+00  1.00001  6.2505  1.0003E-10  1.0005E-10  5.6824E-03  2.7226E-04  1.0217E-10  2.9075E-05  1.0127E-10  3.5209E-04  3.4493E-04                                                                                                                                                                                                                                                                                                                                                                                                                                                                                                                                                                                                            
     935.0000     125.0000   -5225.0000  5.31061E+02  238.206  0.00000E+00  1.00000E+00  1.00001  6.2505  1.0003E-10  1.0005E-10  5.6827E-03  2.7226E-04  1.0217E-10  2.9075E-05  1.0127E-10  3.5209E-04  3.4493E-04                                                                                                                                                                                                                                                                                                                                                                                                                                                                                                                                                                                                            
    1185.0000     125.0000   -5225.0000  5.31057E+02  238.210  0.00000E+00  1.00000E+00  1.00001  6.2505  1.0003E-10  1.0005E-10  5.6838E-03  2.7226E-04  1.0217E-10  2.9074E-05  1.0127E-10  3.5209E-04  3.4493E-04                                                                                                                                                                                                                                                                                                                                                                                                                                                                                                                                                                                                            
    1435.0000     125.0000   -5225.0000  5.31055E+02  238.214  0.00000E+00  1.00000E+00  1.00001  6.2504  1.0003E-10  1.0005E-10  5.6850E-03  2.7226E-04  1.0217E-10  2.9074E-05  1.0127E-10  3.5209E-04  3.4493E-04                                                                                                                                                                                                                                                                                                                                                                                                                                                                                                                                                                                                            
     125.0000     125.0000   -4975.0000  5.09861E+02  227.275  0.00000E+00  1.00000E+00  1.00001  6.3903  9.9979E-11  9.9986E-11  3.1923E-03  2.7548E-04  1.0085E-10  3.0503E-05  1.0048E-10  3.4452E-04  3.4123E-04                                                                                                                                                                                                                                                                                                                                                                                                                                                                                                                                                                                                            
     375.0000     125.0000   -4975.0000  5.09864E+02  227.268  0.00000E+00  1.00000E+00  1.00001  6.3904  9.9937E-11  9.9944E-11  3.1911E-03  2.7548E-04  1.0080E-10  3.0504E-05  1.0044E-10  3.4451E-04  3.4123E-04                                                                                                                                                                                                                                                                                                                                                                                                                                                                                                                                                                                                            
     625.0000     125.0000   -4975.0000  5.09867E+02  227.260  0.00000E+00  1.00000E+00  1.00001  6.3905  9.9850E-11  9.9857E-11  3.1898E-03  2.7548E-04  1.0071E-10  3.0506E-05  1.0035E-10  3.4450E-04  3.4123E-04                                                                                                                                                                                                                                                                                                                                                                                                                                                                                                                                                                                                            
     760.0000     125.0000   -4975.0000  5.09865E+02  227.261  0.00000E+00  1.00000E+00  1.00001  6.3905  9.9850E-11  9.9857E-11  3.1899E-03  2.7548E-04  1.0071E-10  3.0505E-05  1.0035E-10  3.4450E-04  3.4123E-04                                                                                                                                                                                                                                                                                                                                                                                                                                                                                                                                                                                                            
     780.0000     125.0000   -4975.0000  5.09865E+02  227.261  0.00000E+00  1.00000E+00  1.00001  6.3905  9.9849E-11  9.9857E-11  3.1900E-03  2.7548E-04  1.0072E-10  3.0505E-05  1.0035E-10  3.4450E-04  3.4123E-04                                                                                                                                                                                                                                                                                                                                                                                                                                                                                                                                                                                                            
     800.0000     125.0000   -4975.0000  5.09865E+02  227.267  0.00000E+00  1.00000E+00  1.00001  6.3904  9.9896E-11  9.9903E-11  3.1909E-03  2.7548E-04  1.0077E-10  3.0504E-05  1.0040E-10  3.4451E-04  3.4124E-04                                                                                                                                                                                                                                                                                                                                                                                                                                                                                                                                                                                                            
     935.0000     125.0000   -4975.0000  5.09862E+02  227.271  0.00000E+00  1.00000E+00  1.00001  6.3904  9.9928E-11  9.9936E-11  3.1917E-03  2.7548E-04  1.0080E-10  3.0504E-05  1.0043E-10  3.4452E-04  3.4123E-04                                                                                                                                                                                                                                                                                                                                                                                                                                                                                                                                                                                                            
    1185.0000     125.0000   -4975.0000  5.09857E+02  227.284  0.00000E+00  1.00000E+00  1.00001  6.3902  9.9981E-11  9.9988E-11  3.1938E-03  2.7547E-04  1.0086E-10  3.0502E-05  1.0049E-10  3.4453E-04  3.4123E-04                                                                                                                                                                                                                                                                                                                                                                                                                                                                                                                                                                                                            
    1435.0000     125.0000   -4975.0000  5.09853E+02  227.297  0.00000E+00  1.00000E+00  1.00001  6.3900  9.9995E-11  1.0000E-10  3.1960E-03  2.7547E-04  1.0087E-10  3.0500E-05  1.0050E-10  3.4455E-04  3.4123E-04                                                                                                                                                                                                                                                                                                                                                                                                                                                                                                                                                                                                            
     125.0000     125.0000   -4725.0000  4.88391E+02  215.846  0.00000E+00  1.00000E+00  1.00001  6.5466  9.6457E-11  9.6458E-11  1.7582E-03  2.7602E-04  9.6631E-11  3.1887E-05  9.6555E-11  3.3607E-04  3.3540E-04                                                                                                                                                                                                                                                                                                                                                                                                                                                                                                                                                                                                            
     375.0000     125.0000   -4725.0000  4.88393E+02  215.435  0.00000E+00  1.00000E+00  1.00001  6.5524  9.5298E-11  9.5299E-11  1.7216E-03  2.7604E-04  9.5404E-11  3.1941E-05  9.5358E-11  3.3564E-04  3.3523E-04                                                                                                                                                                                                                                                                                                                                                                                                                                                                                                                                                                                                            
     625.0000     125.0000   -4725.0000  4.88394E+02  214.731  0.00000E+00  1.00000E+00  1.00001  6.5623  9.3545E-11  9.3545E-11  1.6606E-03  2.7603E-04  9.3588E-11  3.2029E-05  9.3569E-11  3.3502E-04  3.3483E-04                                                                                                                                                                                                                                                                                                                                                                                                                                                                                                                                                                                                            
     760.0000     125.0000   -4725.0000  4.88393E+02  214.697  0.00000E+00  1.00000E+00  1.00001  6.5628  9.3459E-11  9.3460E-11  1.6577E-03  2.7604E-04  9.3511E-11  3.2033E-05  9.3495E-11  3.3498E-04  3.3482E-04                                                                                                                                                                                                                                                                                                                                                                                                                                                                                                                                                                                                            
     780.0000     125.0000   -4725.0000  4.88393E+02  214.677  0.00000E+00  1.00000E+00  1.00001  6.5631  9.3440E-11  9.3440E-11  1.6560E-03  2.7603E-04  9.3662E-11  3.2035E-05  9.3646E-11  3.3496E-04  3.3481E-04                                                                                                                                                                                                                                                                                                                                                                                                                                                                                                                                                                                                            
     800.0000     125.0000   -4725.0000  4.88393E+02  215.218  0.00000E+00  1.00000E+00  1.00001  6.5554  9.4463E-11  9.4464E-11  1.7025E-03  2.7605E-04  9.4684E-11  3.1969E-05  9.4653E-11  3.3541E-04  3.3514E-04                                                                                                                                                                                                                                                                                                                                                                                                                                                                                                                                                                                                            
     935.0000     125.0000   -4725.0000  4.88391E+02  215.487  0.00000E+00  1.00000E+00  1.00001  6.5516  9.5138E-11  9.5139E-11  1.7261E-03  2.7604E-04  9.5373E-11  3.1934E-05  9.5323E-11  3.3568E-04  3.3526E-04                                                                                                                                                                                                                                                                                                                                                                                                                                                                                                                                                                                                            
    1185.0000     125.0000   -4725.0000  4.88388E+02  215.970  0.00000E+00  1.00000E+00  1.00001  6.5449  9.6576E-11  9.6578E-11  1.7695E-03  2.7601E-04  9.6857E-11  3.1871E-05  9.6772E-11  3.3618E-04  3.3547E-04                                                                                                                                                                                                                                                                                                                                                                                                                                                                                                                                                                                                            