Title="TOUGHREACT V3.30-OMP: Mineral Abundances(Total or Changes) and/or Exchanged Species: Change in volume fraction"                                                                                                                                                                                                                                                                                                                                                                                                                                                                                                                                                                                                                                                                                                          
Variables= "X(m)"   "Y(m)"   "Z(m)"       "T(C)"   "Porosity"  "Poros_Chg" "Permx(m^2)"     "Kx/Kx0" "Permz(m^2)"     "Kz/Kz0" "quartz(alpha"     "dolomite"    "kaolinite"      "calcite"       "barite"    "anorthite"                                                                                                                                                                                                                                                                                                                                                                                                                                                                                                                                                                                                        
Zone T= "9.50663722E+01 yr" I=      9J=     10K=     23F=Point 
     125.0000     125.0000   -5425.0000  247.335  0.20014  1.40740E-04  1.00000E-16  1.0000E+00  1.00000E-16  1.0000E+00  0.0000E+00 -2.5824E-07 -1.2985E-04 -4.8616E-05  0.0000E+00  1.2919E-04                                                                                                                                                                                                                                                                                                                                                                                                                                                                                                                                                                                                                                
     375.0000     125.0000   -5425.0000  247.335  0.20014  1.40970E-04  1.00000E-16  1.0000E+00  1.00000E-16  1.0000E+00  0.0000E+00 -2.5824E-07 -1.2985E-04 -4.8615E-05  0.0000E+00  1.2919E-04                                                                                                                                                                                                                                                                                                                                                                                                                                                                                                                                                                                                                                
     625.0000     125.0000   -5425.0000  247.336  0.20014  1.40727E-04  1.00000E-16  1.0000E+00  1.00000E-16  1.0000E+00  0.0000E+00 -2.5824E-07 -1.2984E-04 -4.8613E-05  0.0000E+00  1.2918E-04                                                                                                                                                                                                                                                                                                                                                                                                                                                                                                                                                                                                                                
     760.0000     125.0000   -5425.0000  247.336  0.20014  1.40071E-04  1.00000E-16  1.0000E+00  1.00000E-16  1.0000E+00  0.0000E+00 -2.5824E-07 -1.2984E-04 -4.8613E-05  0.0000E+00  1.2919E-04                                                                                                                                                                                                                                                                                                                                                                                                                                                                                                                                                                                                                                
     780.0000     125.0000   -5425.0000  247.336  0.20014  1.39968E-04  1.00000E-16  1.0000E+00  1.00000E-16  1.0000E+00  0.0000E+00 -2.5824E-07 -1.2984E-04 -4.8614E-05  0.0000E+00  1.2919E-04                                                                                                                                                                                                                                                                                                                                                                                                                                                                                                                                                                                                                                
     800.0000     125.0000   -5425.0000  247.336  0.20014  1.39861E-04  1.00000E-16  1.0000E+00  1.00000E-16  1.0000E+00  0.0000E+00 -2.5824E-07 -1.2984E-04 -4.8614E-05  0.0000E+00  1.2919E-04                                                                                                                                                                                                                                                                                                                                                                                                                                                                                                                                                                                                                                
     935.0000     125.0000   -5425.0000  247.335  0.20014  1.39103E-04  1.00000E-16  1.0000E+00  1.00000E-16  1.0000E+00  0.0000E+00 -2.5824E-07 -1.2984E-04 -4.8614E-05  0.0000E+00  1.2919E-04                                                                                                                                                                                                                                                                                                                                                                                                                                                                                                                                                                                                                                
    1185.0000     125.0000   -5425.0000  247.335  0.20014  1.37188E-04  1.00000E-16  1.0000E+00  1.00000E-16  1.0000E+00  0.0000E+00 -2.5824E-07 -1.2985E-04 -4.8615E-05  0.0000E+00  1.2919E-04                                                                                                                                                                                                                                                                                                                                                                                                                                                                                                                                                                                                                                
    1435.0000     125.0000   -5425.0000  247.334  0.20014  1.35788E-04  1.00000E-16  1.0000E+00  1.00000E-16  1.0000E+00  0.0000E+00 -2.5823E-07 -1.2985E-04 -4.8615E-05  0.0000E+00  1.2919E-04                                                                                                                                                                                                                                                                                                                                                                                                                                                                                                                                                                                                                                
     125.0000     125.0000   -5225.0000  238.016  0.20030  2.98080E-04  1.00000E-16  1.0000E+00  1.00000E-16  1.0000E+00  0.0000E+00 -2.7534E-07 -8.0554E-05 -3.0325E-05  0.0000E+00  7.9155E-05                                                                                                                                                                                                                                                                                                                                                                                                                                                                                                                                                                                                                                
     375.0000     125.0000   -5225.0000  238.017  0.20030  2.98609E-04  1.00000E-16  1.0000E+00  1.00000E-16  1.0000E+00  0.0000E+00 -2.7534E-07 -8.0553E-05 -3.0325E-05  0.0000E+00  7.9155E-05                                                                                                                                                                                                                                                                                                                                                                                                                                                                                                                                                                                                                                
     625.0000     125.0000   -5225.0000  238.018  0.20030  2.98582E-04  1.00000E-16  1.0000E+00  1.00000E-16  1.0000E+00  0.0000E+00 -2.7535E-07 -8.0548E-05 -3.0323E-05  0.0000E+00  7.9149E-05                                                                                                                                                                                                                                                                                                                                                                                                                                                                                                                                                                                                                                
     760.0000     125.0000   -5225.0000  238.017  0.20030  2.97859E-04  1.00000E-16  1.0000E+00  1.00000E-16  1.0000E+00  0.0000E+00 -2.7535E-07 -8.0549E-05 -3.0323E-05  0.0000E+00  7.9151E-05                                                                                                                                                                                                                                                                                                                                                                                                                                                                                                                                                                                                                                
     780.0000     125.0000   -5225.0000  238.017  0.20030  2.97745E-04  1.00000E-16  1.0000E+00  1.00000E-16  1.0000E+00  0.0000E+00 -2.7535E-07 -8.0550E-05 -3.0323E-05  0.0000E+00  7.9151E-05                                                                                                                                                                                                                                                                                                                                                                                                                                                                                                                                                                                                                                
     800.0000     125.0000   -5225.0000  238.017  0.20030  2.97623E-04  1.00000E-16  1.0000E+00  1.00000E-16  1.0000E+00  0.0000E+00 -2.7535E-07 -8.0550E-05 -3.0323E-05  0.0000E+00  7.9152E-05                                                                                                                                                                                                                                                                                                                                                                                                                                                                                                                                                                                                                                
     935.0000     125.0000   -5225.0000  238.017  0.20030  2.96758E-04  1.00000E-16  1.0000E+00  1.00000E-16  1.0000E+00  0.0000E+00 -2.7534E-07 -8.0552E-05 -3.0324E-05  0.0000E+00  7.9154E-05                                                                                                                                                                                                                                                                                                                                                                                                                                                                                                                                                                                                                                
    1185.0000     125.0000   -5225.0000  238.016  0.20029  2.94416E-04  1.00000E-16  1.0000E+00  1.00000E-16  1.0000E+00  0.0000E+00 -2.7534E-07 -8.0551E-05 -3.0324E-05  0.0000E+00  7.9152E-05                                                                                                                                                                                                                                                                                                                                                                                                                                                                                                                                                                                                                                
    1435.0000     125.0000   -5225.0000  238.016  0.20029  2.92659E-04  1.00000E-16  1.0000E+00  1.00000E-16  1.0000E+00  0.0000E+00 -2.7534E-07 -8.0548E-05 -3.0323E-05  0.0000E+00  7.9150E-05                                                                                                                                                                                                                                                                                                                                                                                                                                                                                                                                                                                                                                
     125.0000     125.0000   -4975.0000  227.154  0.20050  4.95094E-04  1.00000E-16  1.0000E+00  1.00000E-16  1.0000E+00  0.0000E+00 -2.9553E-07 -4.5365E-05 -1.7276E-05  0.0000E+00  4.3430E-05                                                                                                                                                                                                                                                                                                                                                                                                                                                                                                                                                                                                                                
     375.0000     125.0000   -4975.0000  227.154  0.20050  4.97031E-04  1.00000E-16  1.0000E+00  1.00000E-16  1.0000E+00  0.0000E+00 -2.9553E-07 -4.5374E-05 -1.7279E-05  0.0000E+00  4.3439E-05                                                                                                                                                                                                                                                                                                                                                                                                                                                                                                                                                                                                                                
     625.0000     125.0000   -4975.0000  227.154  0.20050  4.97992E-04  1.00000E-16  1.0000E+00  1.00000E-16  1.0000E+00  0.0000E+00 -2.9553E-07 -4.5374E-05 -1.7279E-05  0.0000E+00  4.3439E-05                                                                                                                                                                                                                                                                                                                                                                                                                                                                                                                                                                                                                                
     760.0000     125.0000   -4975.0000  227.153  0.20050  4.97008E-04  1.00000E-16  1.0000E+00  1.00000E-16  1.0000E+00  0.0000E+00 -2.9553E-07 -4.5376E-05 -1.7280E-05  0.0000E+00  4.3441E-05                                                                                                                                                                                                                                                                                                                                                                                                                                                                                                                                                                                                                                
     780.0000     125.0000   -4975.0000  227.153  0.20050  4.96845E-04  1.00000E-16  1.0000E+00  1.00000E-16  1.0000E+00  0.0000E+00 -2.9552E-07 -4.5376E-05 -1.7280E-05  0.0000E+00  4.3441E-05                                                                                                                                                                                                                                                                                                                                                                                                                                                                                                                                                                                                                                
     800.0000     125.0000   -4975.0000  227.154  0.20050  4.96674E-04  1.00000E-16  1.0000E+00  1.00000E-16  1.0000E+00  0.0000E+00 -2.9553E-07 -4.5374E-05 -1.7279E-05  0.0000E+00  4.3439E-05                                                                                                                                                                                                                                                                                                                                                                                                                                                                                                                                                                                                                                
     935.0000     125.0000   -4975.0000  227.153  0.20050  4.95363E-04  1.00000E-16  1.0000E+00  1.00000E-16  1.0000E+00  0.0000E+00 -2.9553E-07 -4.5375E-05 -1.7279E-05  0.0000E+00  4.3440E-05                                                                                                                                                                                                                                                                                                                                                                                                                                                                                                                                                                                                                                
    1185.0000     125.0000   -4975.0000  227.154  0.20049  4.91258E-04  1.00000E-16  1.0000E+00  1.00000E-16  1.0000E+00  0.0000E+00 -2.9553E-07 -4.5363E-05 -1.7275E-05  0.0000E+00  4.3427E-05                                                                                                                                                                                                                                                                                                                                                                                                                                                                                                                                                                                                                                
    1435.0000     125.0000   -4975.0000  227.155  0.20049  4.88060E-04  1.00000E-16  1.0000E+00  1.00000E-16  1.0000E+00  0.0000E+00 -2.9554E-07 -4.5354E-05 -1.7272E-05  0.0000E+00  4.3419E-05                                                                                                                                                                                                                                                                                                                                                                                                                                                                                                                                                                                                                                
     125.0000     125.0000   -4725.0000  216.336  0.20069  6.85726E-04  1.00000E-16  1.0000E+00  1.00000E-16  1.0000E+00  0.0000E+00 -3.1541E-07 -2.5187E-05 -9.7972E-06  0.0000E+00  2.2947E-05                                                                                                                                                                                                                                                                                                                                                                                                                                                                                                                                                                                                                                
     375.0000     125.0000   -4725.0000  216.276  0.20069  6.91547E-04  1.00000E-16  1.0000E+00  1.00000E-16  1.0000E+00  0.0000E+00 -3.1495E-07 -2.5258E-05 -9.8231E-06  0.0000E+00  2.3020E-05                                                                                                                                                                                                                                                                                                                                                                                                                                                                                                                                                                                                                                
     625.0000     125.0000   -4725.0000  215.807  0.20069  6.92087E-04  1.00000E-16  1.0000E+00  1.00000E-16  1.0000E+00  0.0000E+00 -3.1296E-07 -2.4971E-05 -9.7083E-06  0.0000E+00  2.2701E-05                                                                                                                                                                                                                                                                                                                                                                                                                                                                                                                                                                                                                                
     760.0000     125.0000   -4725.0000  215.809  0.20069  6.90693E-04  1.00000E-16  1.0000E+00  1.00000E-16  1.0000E+00  0.0000E+00 -3.1293E-07 -2.4961E-05 -9.7048E-06  0.0000E+00  2.2692E-05                                                                                                                                                                                                                                                                                                                                                                                                                                                                                                                                                                                                                                
     780.0000     125.0000   -4725.0000  215.803  0.20069  6.90385E-04  1.00000E-16  1.0000E+00  1.00000E-16  1.0000E+00  0.0000E+00 -3.1284E-07 -2.4951E-05 -9.7019E-06  0.0000E+00  2.2683E-05                                                                                                                                                                                                                                                                                                                                                                                                                                                                                                                                                                                                                                
     800.0000     125.0000   -4725.0000  216.104  0.20069  6.91949E-04  1.00000E-16  1.0000E+00  1.00000E-16  1.0000E+00  0.0000E+00 -3.1422E-07 -2.5182E-05 -9.7920E-06  0.0000E+00  2.2933E-05                                                                                                                                                                                                                                                                                                                                                                                                                                                                                                                                                                                                                                
     935.0000     125.0000   -4725.0000  216.261  0.20069  6.90603E-04  1.00000E-16  1.0000E+00  1.00000E-16  1.0000E+00  0.0000E+00 -3.1487E-07 -2.5263E-05 -9.8249E-06  0.0000E+00  2.3025E-05                                                                                                                                                                                                                                                                                                                                                                                                                                                                                                                                                                                                                                
    1185.0000     125.0000   -4725.0000  216.335  0.20068  6.82658E-04  1.00000E-16  1.0000E+00  1.00000E-16  1.0000E+00  0.0000E+00 -3.1540E-07 -2.5188E-05 -9.7976E-06  0.0000E+00  2.2948E-05                                                                                                                                                                                                                                                                                                                                                                                                                                                                                                                                                                                                                                