Title="TOUGHREACT V3.30-OMP: Mineral Abundances(Total or Changes) and/or Exchanged Species: Change in volume fraction"                                                                                                                                                                                                                                                                                                                                                                                                                                                                                                                                                                                                                                                                                                          
Variables= "X(m)"   "Y(m)"   "Z(m)"       "T(C)"   "Porosity"  "Poros_Chg" "Permx(m^2)"     "Kx/Kx0" "Permz(m^2)"     "Kz/Kz0" "quartz(alpha"     "dolomite"    "kaolinite"      "calcite"       "barite"    "anorthite"                                                                                                                                                                                                                                                                                                                                                                                                                                                                                                                                                                                                        
Zone T= "2.21821535E+03 yr" I=      9J=     10K=     23F=Point 
     125.0000     125.0000   -5425.0000  261.300  0.20205  2.05122E-03  1.00000E-16  1.0000E+00  1.00000E-16  1.0000E+00  0.0000E+00 -2.4165E-07 -2.6839E-04 -1.0006E-04  0.0000E+00  2.6968E-04                                                                                                                                                                                                                                                                                                                                                                                                                                                                                                                                                                                                                                
     375.0000     125.0000   -5425.0000  261.300  0.20205  2.05126E-03  1.00000E-16  1.0000E+00  1.00000E-16  1.0000E+00  0.0000E+00 -2.4165E-07 -2.6838E-04 -1.0006E-04  0.0000E+00  2.6968E-04                                                                                                                                                                                                                                                                                                                                                                                                                                                                                                                                                                                                                                
     625.0000     125.0000   -5425.0000  261.301  0.20205  2.05127E-03  1.00000E-16  1.0000E+00  1.00000E-16  1.0000E+00  0.0000E+00 -2.4165E-07 -2.6838E-04 -1.0006E-04  0.0000E+00  2.6968E-04                                                                                                                                                                                                                                                                                                                                                                                                                                                                                                                                                                                                                                
     760.0000     125.0000   -5425.0000  261.301  0.20205  2.05121E-03  1.00000E-16  1.0000E+00  1.00000E-16  1.0000E+00  0.0000E+00 -2.4165E-07 -2.6838E-04 -1.0006E-04  0.0000E+00  2.6968E-04                                                                                                                                                                                                                                                                                                                                                                                                                                                                                                                                                                                                                                
     780.0000     125.0000   -5425.0000  261.301  0.20205  2.05120E-03  1.00000E-16  1.0000E+00  1.00000E-16  1.0000E+00  0.0000E+00 -2.4165E-07 -2.6838E-04 -1.0006E-04  0.0000E+00  2.6968E-04                                                                                                                                                                                                                                                                                                                                                                                                                                                                                                                                                                                                                                
     800.0000     125.0000   -5425.0000  261.301  0.20205  2.05119E-03  1.00000E-16  1.0000E+00  1.00000E-16  1.0000E+00  0.0000E+00 -2.4165E-07 -2.6838E-04 -1.0006E-04  0.0000E+00  2.6968E-04                                                                                                                                                                                                                                                                                                                                                                                                                                                                                                                                                                                                                                
     935.0000     125.0000   -5425.0000  261.301  0.20205  2.05113E-03  1.00000E-16  1.0000E+00  1.00000E-16  1.0000E+00  0.0000E+00 -2.4165E-07 -2.6838E-04 -1.0006E-04  0.0000E+00  2.6968E-04                                                                                                                                                                                                                                                                                                                                                                                                                                                                                                                                                                                                                                
    1185.0000     125.0000   -5425.0000  261.301  0.20205  2.05097E-03  1.00000E-16  1.0000E+00  1.00000E-16  1.0000E+00  0.0000E+00 -2.4165E-07 -2.6838E-04 -1.0006E-04  0.0000E+00  2.6967E-04                                                                                                                                                                                                                                                                                                                                                                                                                                                                                                                                                                                                                                
    1435.0000     125.0000   -5425.0000  261.301  0.20205  2.05085E-03  1.00000E-16  1.0000E+00  1.00000E-16  1.0000E+00  0.0000E+00 -2.4164E-07 -2.6838E-04 -1.0006E-04  0.0000E+00  2.6967E-04                                                                                                                                                                                                                                                                                                                                                                                                                                                                                                                                                                                                                                
     125.0000     125.0000   -5225.0000  238.197  0.20208  2.08420E-03  1.00000E-16  1.0000E+00  1.00000E-16  1.0000E+00  0.0000E+00 -2.7359E-07 -7.9988E-05 -3.0116E-05  0.0000E+00  7.8602E-05                                                                                                                                                                                                                                                                                                                                                                                                                                                                                                                                                                                                                                
     375.0000     125.0000   -5225.0000  238.196  0.20208  2.08427E-03  1.00000E-16  1.0000E+00  1.00000E-16  1.0000E+00  0.0000E+00 -2.7359E-07 -8.0014E-05 -3.0126E-05  0.0000E+00  7.8629E-05                                                                                                                                                                                                                                                                                                                                                                                                                                                                                                                                                                                                                                
     625.0000     125.0000   -5225.0000  238.196  0.20208  2.08431E-03  1.00000E-16  1.0000E+00  1.00000E-16  1.0000E+00  0.0000E+00 -2.7359E-07 -8.0031E-05 -3.0132E-05  0.0000E+00  7.8646E-05                                                                                                                                                                                                                                                                                                                                                                                                                                                                                                                                                                                                                                
     760.0000     125.0000   -5225.0000  238.197  0.20208  2.08424E-03  1.00000E-16  1.0000E+00  1.00000E-16  1.0000E+00  0.0000E+00 -2.7359E-07 -8.0016E-05 -3.0127E-05  0.0000E+00  7.8631E-05                                                                                                                                                                                                                                                                                                                                                                                                                                                                                                                                                                                                                                
     780.0000     125.0000   -5225.0000  238.197  0.20208  2.08423E-03  1.00000E-16  1.0000E+00  1.00000E-16  1.0000E+00  0.0000E+00 -2.7359E-07 -8.0014E-05 -3.0126E-05  0.0000E+00  7.8629E-05                                                                                                                                                                                                                                                                                                                                                                                                                                                                                                                                                                                                                                
     800.0000     125.0000   -5225.0000  238.197  0.20208  2.08422E-03  1.00000E-16  1.0000E+00  1.00000E-16  1.0000E+00  0.0000E+00 -2.7359E-07 -8.0011E-05 -3.0125E-05  0.0000E+00  7.8626E-05                                                                                                                                                                                                                                                                                                                                                                                                                                                                                                                                                                                                                                
     935.0000     125.0000   -5225.0000  238.198  0.20208  2.08414E-03  1.00000E-16  1.0000E+00  1.00000E-16  1.0000E+00  0.0000E+00 -2.7359E-07 -7.9991E-05 -3.0117E-05  0.0000E+00  7.8605E-05                                                                                                                                                                                                                                                                                                                                                                                                                                                                                                                                                                                                                                
    1185.0000     125.0000   -5225.0000  238.202  0.20208  2.08394E-03  1.00000E-16  1.0000E+00  1.00000E-16  1.0000E+00  0.0000E+00 -2.7360E-07 -7.9928E-05 -3.0094E-05  0.0000E+00  7.8542E-05                                                                                                                                                                                                                                                                                                                                                                                                                                                                                                                                                                                                                                
    1435.0000     125.0000   -5225.0000  238.205  0.20208  2.08380E-03  1.00000E-16  1.0000E+00  1.00000E-16  1.0000E+00  0.0000E+00 -2.7361E-07 -7.9869E-05 -3.0072E-05  0.0000E+00  7.8482E-05                                                                                                                                                                                                                                                                                                                                                                                                                                                                                                                                                                                                                                
     125.0000     125.0000   -4975.0000  227.271  0.20228  2.27710E-03  1.00000E-16  1.0000E+00  1.00000E-16  1.0000E+00  0.0000E+00 -2.9447E-07 -4.5655E-05 -1.7384E-05  0.0000E+00  4.3733E-05                                                                                                                                                                                                                                                                                                                                                                                                                                                                                                                                                                                                                                
     375.0000     125.0000   -4975.0000  227.264  0.20228  2.27726E-03  1.00000E-16  1.0000E+00  1.00000E-16  1.0000E+00  0.0000E+00 -2.9445E-07 -4.5698E-05 -1.7400E-05  0.0000E+00  4.3777E-05                                                                                                                                                                                                                                                                                                                                                                                                                                                                                                                                                                                                                                
     625.0000     125.0000   -4975.0000  227.256  0.20228  2.27741E-03  1.00000E-16  1.0000E+00  1.00000E-16  1.0000E+00  0.0000E+00 -2.9443E-07 -4.5736E-05 -1.7414E-05  0.0000E+00  4.3815E-05                                                                                                                                                                                                                                                                                                                                                                                                                                                                                                                                                                                                                                
     760.0000     125.0000   -4975.0000  227.257  0.20228  2.27730E-03  1.00000E-16  1.0000E+00  1.00000E-16  1.0000E+00  0.0000E+00 -2.9443E-07 -4.5723E-05 -1.7409E-05  0.0000E+00  4.3802E-05                                                                                                                                                                                                                                                                                                                                                                                                                                                                                                                                                                                                                                
     780.0000     125.0000   -4975.0000  227.257  0.20228  2.27728E-03  1.00000E-16  1.0000E+00  1.00000E-16  1.0000E+00  0.0000E+00 -2.9443E-07 -4.5721E-05 -1.7408E-05  0.0000E+00  4.3799E-05                                                                                                                                                                                                                                                                                                                                                                                                                                                                                                                                                                                                                                
     800.0000     125.0000   -4975.0000  227.263  0.20228  2.27729E-03  1.00000E-16  1.0000E+00  1.00000E-16  1.0000E+00  0.0000E+00 -2.9445E-07 -4.5704E-05 -1.7402E-05  0.0000E+00  4.3783E-05                                                                                                                                                                                                                                                                                                                                                                                                                                                                                                                                                                                                                                
     935.0000     125.0000   -4975.0000  227.267  0.20228  2.27714E-03  1.00000E-16  1.0000E+00  1.00000E-16  1.0000E+00  0.0000E+00 -2.9446E-07 -4.5676E-05 -1.7392E-05  0.0000E+00  4.3754E-05                                                                                                                                                                                                                                                                                                                                                                                                                                                                                                                                                                                                                                
    1185.0000     125.0000   -4975.0000  227.280  0.20228  2.27684E-03  1.00000E-16  1.0000E+00  1.00000E-16  1.0000E+00  0.0000E+00 -2.9449E-07 -4.5592E-05 -1.7361E-05  0.0000E+00  4.3669E-05                                                                                                                                                                                                                                                                                                                                                                                                                                                                                                                                                                                                                                
    1435.0000     125.0000   -4975.0000  227.292  0.20228  2.27665E-03  1.00000E-16  1.0000E+00  1.00000E-16  1.0000E+00  0.0000E+00 -2.9452E-07 -4.5508E-05 -1.7330E-05  0.0000E+00  4.3584E-05                                                                                                                                                                                                                                                                                                                                                                                                                                                                                                                                                                                                                                
     125.0000     125.0000   -4725.0000  215.841  0.20245  2.45443E-03  1.00000E-16  1.0000E+00  1.00000E-16  1.0000E+00  0.0000E+00 -3.1170E-07 -2.5102E-05 -9.7662E-06  0.0000E+00  2.2850E-05                                                                                                                                                                                                                                                                                                                                                                                                                                                                                                                                                                                                                                
     375.0000     125.0000   -4725.0000  215.431  0.20245  2.45196E-03  1.00000E-16  1.0000E+00  1.00000E-16  1.0000E+00  0.0000E+00 -3.1137E-07 -2.4787E-05 -9.6455E-06  0.0000E+00  2.2499E-05                                                                                                                                                                                                                                                                                                                                                                                                                                                                                                                                                                                                                                
     625.0000     125.0000   -4725.0000  214.727  0.20245  2.44764E-03  1.00000E-16  1.0000E+00  1.00000E-16  1.0000E+00  0.0000E+00 -3.0890E-07 -2.4267E-05 -9.4439E-06  0.0000E+00  2.1927E-05                                                                                                                                                                                                                                                                                                                                                                                                                                                                                                                                                                                                                                
     760.0000     125.0000   -4725.0000  214.693  0.20245  2.44735E-03  1.00000E-16  1.0000E+00  1.00000E-16  1.0000E+00  0.0000E+00 -3.0874E-07 -2.4231E-05 -9.4308E-06  0.0000E+00  2.1889E-05                                                                                                                                                                                                                                                                                                                                                                                                                                                                                                                                                                                                                                
     780.0000     125.0000   -4725.0000  214.674  0.20245  2.44721E-03  1.00000E-16  1.0000E+00  1.00000E-16  1.0000E+00  0.0000E+00 -3.0863E-07 -2.4181E-05 -9.4129E-06  0.0000E+00  2.1838E-05                                                                                                                                                                                                                                                                                                                                                                                                                                                                                                                                                                                                                                
     800.0000     125.0000   -4725.0000  215.214  0.20245  2.45064E-03  1.00000E-16  1.0000E+00  1.00000E-16  1.0000E+00  0.0000E+00 -3.1069E-07 -2.4712E-05 -9.6135E-06  0.0000E+00  2.2407E-05                                                                                                                                                                                                                                                                                                                                                                                                                                                                                                                                                                                                                                
     935.0000     125.0000   -4725.0000  215.482  0.20245  2.45219E-03  1.00000E-16  1.0000E+00  1.00000E-16  1.0000E+00  0.0000E+00 -3.1168E-07 -2.4838E-05 -9.6632E-06  0.0000E+00  2.2552E-05                                                                                                                                                                                                                                                                                                                                                                                                                                                                                                                                                                                                                                
    1185.0000     125.0000   -4725.0000  215.965  0.20246  2.45501E-03  1.00000E-16  1.0000E+00  1.00000E-16  1.0000E+00  0.0000E+00 -3.1281E-07 -2.5161E-05 -9.7875E-06  0.0000E+00  2.2911E-05                                                                                                                                                                                                                                                                                                                                                                                                                                                                                                                                                                                                                                