Title="TOUGHREACT V3.30-OMP flowvector.tec: Liq & Gas Fluxes (kg/s/m^2), Pore Velocities (m/s), & Heat Fluxes (J/s/m2)"                                                                                                                                                                                                                                                                                                                                                                                                                                                                                                                                                                                                                                                                                                         
Variables= "X(m)"     "Y(m)"      "Z(m)"     "FluxLiq"   "FluxLiq_X"   "FluxLiq_Y"   "FluxLiq_Z"   "PorVelLiq"  "PorVelLiqX"  "PorVelLiqY"  "PorVelLiqZ"     "FluxGas"   "FluxGas_X"   "FluxGas_Y"   "FluxGas_Z"   "PorVelGas"  "PorVelGasX"  "PorVelGasY"  "PorVelGasZ"    "HeatFlux"  "HeatFlux_X"  "HeatFlux_Y"  "HeatFlux_Z"                                                                                                                                                                                                                                                                                                                                                                                                                                                                                                
Zone T= "9.00000000E+09 sec" I=     9 J=    10 K=    23 F=Point
  1.250000E+02  1.250000E+02 -5.425000E+03  8.903641E-10  1.807652E-10 -4.541507E-10 -7.441904E-10  5.180087E-12  1.057018E-12 -2.655625E-12 -4.320147E-12  0.000000E+00  0.000000E+00  0.000000E+00  0.000000E+00  0.000000E+00  0.000000E+00  0.000000E+00  0.000000E+00  9.406737E-04  1.969108E-04 -4.947149E-04 -7.754677E-04                                                                                                                                                                                                                                                                                                                                                                                                                                                                                              
  3.750000E+02  1.250000E+02 -5.425000E+03  1.382521E-09  8.941088E-10 -4.740837E-10 -9.419018E-10  8.057155E-12  5.228272E-12 -2.772186E-12 -5.467898E-12  0.000000E+00  0.000000E+00  0.000000E+00  0.000000E+00  0.000000E+00  0.000000E+00  0.000000E+00  0.000000E+00  1.476022E-03  9.739701E-04 -5.164299E-04 -9.814908E-04                                                                                                                                                                                                                                                                                                                                                                                                                                                                                              
  6.250000E+02  1.250000E+02 -5.425000E+03  2.492720E-09  2.199652E-09 -5.486961E-10 -1.036396E-09  1.455796E-11  1.286242E-11 -3.208488E-12 -6.016473E-12  0.000000E+00  0.000000E+00  0.000000E+00  0.000000E+00  0.000000E+00  0.000000E+00  0.000000E+00  0.000000E+00  2.695367E-03  2.396128E-03 -5.977089E-04 -1.079963E-03                                                                                                                                                                                                                                                                                                                                                                                                                                                                                              
  7.600000E+02  1.250000E+02 -5.425000E+03  3.212396E-09  3.021977E-09 -6.353981E-10 -8.851038E-10  1.877417E-11  1.767098E-11 -3.715482E-12 -5.138203E-12  0.000000E+00  0.000000E+00  0.000000E+00  0.000000E+00  0.000000E+00  0.000000E+00  0.000000E+00  0.000000E+00  3.488033E-03  3.291905E-03 -6.921546E-04 -9.223084E-04                                                                                                                                                                                                                                                                                                                                                                                                                                                                                              
  7.800000E+02  1.250000E+02 -5.425000E+03  3.299441E-09  3.118564E-09 -6.486814E-10 -8.602800E-10  1.928401E-11  1.823579E-11 -3.793157E-12 -4.994098E-12  0.000000E+00  0.000000E+00  0.000000E+00  0.000000E+00  0.000000E+00  0.000000E+00  0.000000E+00  0.000000E+00  3.583759E-03  3.397118E-03 -7.066243E-04 -8.964409E-04                                                                                                                                                                                                                                                                                                                                                                                                                                                                                              
  8.000000E+02  1.250000E+02 -5.425000E+03  3.382392E-09  3.210591E-09 -6.623846E-10 -8.330227E-10  1.976988E-11  1.877392E-11 -3.873288E-12 -4.835865E-12  0.000000E+00  0.000000E+00  0.000000E+00  0.000000E+00  0.000000E+00  0.000000E+00  0.000000E+00  0.000000E+00  3.675007E-03  3.497364E-03 -7.215514E-04 -8.680376E-04                                                                                                                                                                                                                                                                                                                                                                                                                                                                                              
  9.350000E+02  1.250000E+02 -5.425000E+03  3.722689E-09  3.589227E-09 -7.575644E-10 -6.339976E-10  2.176390E-11  2.098803E-11 -4.429859E-12 -3.680493E-12  0.000000E+00  0.000000E+00  0.000000E+00  0.000000E+00  0.000000E+00  0.000000E+00  0.000000E+00  0.000000E+00  4.050202E-03  3.909818E-03 -8.252315E-04 -6.606452E-04                                                                                                                                                                                                                                                                                                                                                                                                                                                                                              
  1.185000E+03  1.250000E+02 -5.425000E+03  3.540259E-09  3.404537E-09 -9.706521E-10  1.993149E-11  2.070175E-11  1.990812E-11 -5.675915E-12  1.158038E-13  0.000000E+00  0.000000E+00  0.000000E+00  0.000000E+00  0.000000E+00  0.000000E+00  0.000000E+00  0.000000E+00  3.856471E-03  3.708626E-03 -1.057349E-03  2.171173E-05                                                                                                                                                                                                                                                                                                                                                                                                                                                                                              
  1.435000E+03  1.250000E+02 -5.425000E+03  1.945798E-09  1.443005E-09 -1.118915E-09  6.722329E-10  1.136948E-11  8.438038E-12 -6.542911E-12  3.905756E-12  0.000000E+00  0.000000E+00  0.000000E+00  0.000000E+00  0.000000E+00  0.000000E+00  0.000000E+00  0.000000E+00  2.119593E-03  1.571892E-03 -1.218854E-03  7.322755E-04                                                                                                                                                                                                                                                                                                                                                                                                                                                                                              
  1.250000E+02  1.250000E+02 -5.225000E+03  8.267559E-09  1.591231E-11 -5.723784E-10 -8.247706E-09  4.740521E-11  9.178576E-14 -3.301600E-12 -4.729000E-11  0.000000E+00  0.000000E+00  0.000000E+00  0.000000E+00  0.000000E+00  0.000000E+00  0.000000E+00  0.000000E+00  8.251249E-03  1.658108E-05 -5.964352E-04 -8.229647E-03                                                                                                                                                                                                                                                                                                                                                                                                                                                                                              
  3.750000E+02  1.250000E+02 -5.225000E+03  9.256266E-09  6.334215E-10 -5.855201E-10 -9.215987E-09  5.308406E-11  3.653721E-12 -3.377408E-12 -5.285037E-11  0.000000E+00  0.000000E+00  0.000000E+00  0.000000E+00  0.000000E+00  0.000000E+00  0.000000E+00  0.000000E+00  9.244883E-03  6.600447E-04 -6.101327E-04 -9.201083E-03                                                                                                                                                                                                                                                                                                                                                                                                                                                                                              
  6.250000E+02  1.250000E+02 -5.225000E+03  1.005907E-08  2.295375E-09 -6.716515E-10 -9.770622E-09  5.770718E-11  1.324027E-11 -3.874249E-12 -5.603395E-11  0.000000E+00  0.000000E+00  0.000000E+00  0.000000E+00  0.000000E+00  0.000000E+00  0.000000E+00  0.000000E+00  1.006980E-02  2.391860E-03 -6.998921E-04 -9.756535E-03                                                                                                                                                                                                                                                                                                                                                                                                                                                                                              
  7.600000E+02  1.250000E+02 -5.225000E+03  9.833546E-09  3.428365E-09 -7.938011E-10 -9.182311E-09  5.643049E-11  1.977567E-11 -4.578844E-12 -5.265318E-11  0.000000E+00  0.000000E+00  0.000000E+00  0.000000E+00  0.000000E+00  0.000000E+00  0.000000E+00  0.000000E+00  9.871097E-03  3.572476E-03 -8.271745E-04 -9.164701E-03                                                                                                                                                                                                                                                                                                                                                                                                                                                                                              
  7.800000E+02  1.250000E+02 -5.225000E+03  9.793254E-09  3.571271E-09 -8.126480E-10 -9.082591E-09  5.620214E-11  2.060001E-11 -4.687559E-12 -5.208019E-11  0.000000E+00  0.000000E+00  0.000000E+00  0.000000E+00  0.000000E+00  0.000000E+00  0.000000E+00  0.000000E+00  9.835116E-03  3.721386E-03 -8.468132E-04 -9.064420E-03                                                                                                                                                                                                                                                                                                                                                                                                                                                                                              
  8.000000E+02  1.250000E+02 -5.225000E+03  9.733796E-09  3.708185E-09 -8.322214E-10 -8.961225E-09  5.586411E-11  2.138977E-11 -4.800465E-12 -5.138319E-11  0.000000E+00  0.000000E+00  0.000000E+00  0.000000E+00  0.000000E+00  0.000000E+00  0.000000E+00  0.000000E+00  9.780316E-03  3.864054E-03 -8.672090E-04 -8.942686E-03                                                                                                                                                                                                                                                                                                                                                                                                                                                                                              
  9.350000E+02  1.250000E+02 -5.225000E+03  9.264545E-09  4.327870E-09 -9.686550E-10 -8.134067E-09  5.318722E-11  2.496433E-11 -5.587457E-12 -4.663092E-11  0.000000E+00  0.000000E+00  0.000000E+00  0.000000E+00  0.000000E+00  0.000000E+00  0.000000E+00  0.000000E+00  9.335434E-03  4.509780E-03 -1.009373E-03 -8.111312E-03                                                                                                                                                                                                                                                                                                                                                                                                                                                                                              
  1.185000E+03  1.250000E+02 -5.225000E+03  7.050388E-09  4.353815E-09 -1.292517E-09 -5.392742E-09  4.049639E-11  2.511410E-11 -7.455623E-12 -3.088127E-11  0.000000E+00  0.000000E+00  0.000000E+00  0.000000E+00  0.000000E+00  0.000000E+00  0.000000E+00  0.000000E+00  7.146818E-03  4.536810E-03 -1.346843E-03 -5.355406E-03                                                                                                                                                                                                                                                                                                                                                                                                                                                                                              
  1.435000E+03  1.250000E+02 -5.225000E+03  3.462054E-09  1.913358E-09 -1.503023E-09 -2.462885E-09  1.985807E-11  1.103686E-11 -8.669931E-12 -1.404859E-11  0.000000E+00  0.000000E+00  0.000000E+00  0.000000E+00  0.000000E+00  0.000000E+00  0.000000E+00  0.000000E+00  3.479019E-03  1.993778E-03 -1.566197E-03 -2.382320E-03                                                                                                                                                                                                                                                                                                                                                                                                                                                                                              
  1.250000E+02  1.250000E+02 -4.975000E+03  1.996722E-08 -7.556620E-10 -1.122498E-09 -1.992132E-08  1.134002E-10 -4.300830E-12 -6.388663E-12 -1.131384E-10  0.000000E+00  0.000000E+00  0.000000E+00  0.000000E+00  0.000000E+00  0.000000E+00  0.000000E+00  0.000000E+00  1.920858E-02 -7.506853E-04 -1.115110E-03 -1.916149E-02                                                                                                                                                                                                                                                                                                                                                                                                                                                                                              
  3.750000E+02  1.250000E+02 -4.975000E+03  2.318915E-08 -6.140068E-10 -1.095056E-09 -2.315515E-08  1.316458E-10 -3.494606E-12 -6.232452E-12 -1.314518E-10  0.000000E+00  0.000000E+00  0.000000E+00  0.000000E+00  0.000000E+00  0.000000E+00  0.000000E+00  0.000000E+00  2.226088E-02 -6.099630E-04 -1.087842E-03 -2.222591E-02                                                                                                                                                                                                                                                                                                                                                                                                                                                                                              
  6.250000E+02  1.250000E+02 -4.975000E+03  2.553763E-08  2.592296E-09 -1.209250E-09 -2.537692E-08  1.449216E-10  1.475390E-11 -6.882356E-12 -1.440042E-10  0.000000E+00  0.000000E+00  0.000000E+00  0.000000E+00  0.000000E+00  0.000000E+00  0.000000E+00  0.000000E+00  2.446057E-02  2.575187E-03 -1.201273E-03 -2.429495E-02                                                                                                                                                                                                                                                                                                                                                                                                                                                                                              
  7.600000E+02  1.250000E+02 -4.975000E+03  2.497998E-08  5.102954E-09 -1.501333E-09 -2.440708E-08  1.417634E-10  2.904320E-11 -8.544738E-12 -1.384931E-10  0.000000E+00  0.000000E+00  0.000000E+00  0.000000E+00  0.000000E+00  0.000000E+00  0.000000E+00  0.000000E+00  2.395091E-02  5.069256E-03 -1.491416E-03 -2.336075E-02                                                                                                                                                                                                                                                                                                                                                                                                                                                                                              
  7.800000E+02  1.250000E+02 -4.975000E+03  2.490846E-08  5.509007E-09 -1.547854E-09 -2.424224E-08  1.413588E-10  3.135432E-11 -8.809509E-12 -1.375558E-10  0.000000E+00  0.000000E+00  0.000000E+00  0.000000E+00  0.000000E+00  0.000000E+00  0.000000E+00  0.000000E+00  2.388740E-02  5.472609E-03 -1.537630E-03 -2.320116E-02                                                                                                                                                                                                                                                                                                                                                                                                                                                                                              
  8.000000E+02  1.250000E+02 -4.975000E+03  2.407236E-08  5.861578E-09 -1.598047E-09 -2.329307E-08  1.366571E-10  3.336108E-11 -9.095213E-12 -1.322100E-10  0.000000E+00  0.000000E+00  0.000000E+00  0.000000E+00  0.000000E+00  0.000000E+00  0.000000E+00  0.000000E+00  2.313527E-02  5.822903E-03 -1.587494E-03 -2.233416E-02                                                                                                                                                                                                                                                                                                                                                                                                                                                                                              
  9.350000E+02  1.250000E+02 -4.975000E+03  2.263982E-08  7.468697E-09 -1.934326E-09 -2.128470E-08  1.285594E-10  4.250828E-11 -1.100920E-11 -1.208278E-10  0.000000E+00  0.000000E+00  0.000000E+00  0.000000E+00  0.000000E+00  0.000000E+00  0.000000E+00  0.000000E+00  2.181716E-02  7.419496E-03 -1.921582E-03 -2.042663E-02                                                                                                                                                                                                                                                                                                                                                                                                                                                                                              
  1.185000E+03  1.250000E+02 -4.975000E+03  1.699159E-08  8.602513E-09 -2.825631E-09 -1.437800E-08  9.656370E-11  4.896205E-11 -1.608229E-11 -8.166165E-11  0.000000E+00  0.000000E+00  0.000000E+00  0.000000E+00  0.000000E+00  0.000000E+00  0.000000E+00  0.000000E+00  1.650098E-02  8.545924E-03 -2.807034E-03 -1.383366E-02                                                                                                                                                                                                                                                                                                                                                                                                                                                                                              
  1.435000E+03  1.250000E+02 -4.975000E+03  7.600279E-09  4.138700E-09 -3.346216E-09 -5.425702E-09  4.327275E-11  2.355605E-11 -1.904557E-11 -3.090161E-11  0.000000E+00  0.000000E+00  0.000000E+00  0.000000E+00  0.000000E+00  0.000000E+00  0.000000E+00  0.000000E+00  7.471005E-03  4.111512E-03 -3.324263E-03 -5.278319E-03                                                                                                                                                                                                                                                                                                                                                                                                                                                                                              
  1.250000E+02  1.250000E+02 -4.725000E+03  2.634061E-08 -2.608858E-09 -2.440108E-09 -2.609727E-08  1.449332E-10 -1.464734E-11 -1.370118E-11 -1.435387E-10  0.000000E+00  0.000000E+00  0.000000E+00  0.000000E+00  0.000000E+00  0.000000E+00  0.000000E+00  0.000000E+00  1.918831E-02 -2.455504E-03 -2.298395E-03 -1.889125E-02                                                                                                                                                                                                                                                                                                                                                                                                                                                                                              
  3.750000E+02  1.250000E+02 -4.725000E+03  3.668224E-08 -3.200171E-09 -1.973795E-09 -3.648904E-08  2.004530E-10 -1.796531E-11 -1.107685E-11 -1.993388E-10  0.000000E+00  0.000000E+00  0.000000E+00  0.000000E+00  0.000000E+00  0.000000E+00  0.000000E+00  0.000000E+00  2.427935E-02 -3.010423E-03 -1.854413E-03 -2.402052E-02                                                                                                                                                                                                                                                                                                                                                                                                                                                                                              
  6.250000E+02  1.250000E+02 -4.725000E+03  4.273546E-08  2.768621E-09 -1.535089E-09 -4.261805E-08  2.327853E-10  1.552806E-11 -8.606960E-12 -2.321072E-10  0.000000E+00  0.000000E+00  0.000000E+00  0.000000E+00  0.000000E+00  0.000000E+00  0.000000E+00  0.000000E+00  2.687335E-02  2.598219E-03 -1.436008E-03 -2.670887E-02                                                                                                                                                                                                                                                                                                                                                                                                                                                                                              
  7.600000E+02  1.250000E+02 -4.725000E+03  4.448215E-08  7.279683E-09 -2.367332E-09 -4.381853E-08  2.421428E-10  4.083204E-11 -1.327380E-11 -2.383059E-10  0.000000E+00  0.000000E+00  0.000000E+00  0.000000E+00  0.000000E+00  0.000000E+00  0.000000E+00  0.000000E+00  2.786680E-02  6.831637E-03 -2.215304E-03 -2.692545E-02                                                                                                                                                                                                                                                                                                                                                                                                                                                                                              
  7.800000E+02  1.250000E+02 -4.725000E+03  4.501777E-08  8.450852E-09 -2.520724E-09 -4.414554E-08  2.450441E-10  4.740768E-11 -1.413417E-11 -2.399987E-10  0.000000E+00  0.000000E+00  0.000000E+00  0.000000E+00  0.000000E+00  0.000000E+00  0.000000E+00  0.000000E+00  2.822160E-02  7.930508E-03 -2.359364E-03 -2.698146E-02                                                                                                                                                                                                                                                                                                                                                                                                                                                                                              
  8.000000E+02  1.250000E+02 -4.725000E+03  3.820346E-08  9.277849E-09 -2.707157E-09 -3.696076E-08  2.092055E-10  5.206368E-11 -1.518416E-11 -2.020539E-10  0.000000E+00  0.000000E+00  0.000000E+00  0.000000E+00  0.000000E+00  0.000000E+00  0.000000E+00  0.000000E+00  2.628367E-02  8.715371E-03 -2.534719E-03 -2.466675E-02                                                                                                                                                                                                                                                                                                                                                                                                                                                                                              
  9.350000E+02  1.250000E+02 -4.725000E+03  3.645536E-08  1.316585E-08 -3.979177E-09 -3.376122E-08  2.002928E-10  7.391529E-11 -2.233068E-11 -1.848110E-10  0.000000E+00  0.000000E+00  0.000000E+00  0.000000E+00  0.000000E+00  0.000000E+00  0.000000E+00  0.000000E+00  2.643865E-02  1.238856E-02 -3.737384E-03 -2.305554E-02                                                                                                                                                                                                                                                                                                                                                                                                                                                                                              
  1.185000E+03  1.250000E+02 -4.725000E+03  2.726654E-08  1.859151E-08 -7.041490E-09 -1.866111E-08  1.519162E-10  1.044182E-10 -3.953890E-11 -1.030148E-10  0.000000E+00  0.000000E+00  0.000000E+00  0.000000E+00  0.000000E+00  0.000000E+00  0.000000E+00  0.000000E+00  2.353285E-02  1.752032E-02 -6.629427E-03 -1.424374E-02                                                                                                                                                                                                                                                                                                                                                                                                                                                                                              