Title="TOUGHREACT V3.30-OMP flowvector.tec: Liq & Gas Fluxes (kg/s/m^2), Pore Velocities (m/s), & Heat Fluxes (J/s/m2)"                                                                                                                                                                                                                                                                                                                                                                                                                                                                                                                                                                                                                                                                                                         
Variables= "X(m)"     "Y(m)"      "Z(m)"     "FluxLiq"   "FluxLiq_X"   "FluxLiq_Y"   "FluxLiq_Z"   "PorVelLiq"  "PorVelLiqX"  "PorVelLiqY"  "PorVelLiqZ"     "FluxGas"   "FluxGas_X"   "FluxGas_Y"   "FluxGas_Z"   "PorVelGas"  "PorVelGasX"  "PorVelGasY"  "PorVelGasZ"    "HeatFlux"  "HeatFlux_X"  "HeatFlux_Y"  "HeatFlux_Z"                                                                                                                                                                                                                                                                                                                                                                                                                                                                                                
Zone T= "5.00000000E+10 sec" I=     9 J=    10 K=    23 F=Point
  1.250000E+02  1.250000E+02 -5.425000E+03  3.800047E-09 -6.602996E-11 -1.185239E-10  3.797624E-09  2.218261E-11 -3.902417E-13 -7.004840E-13  2.216811E-11  0.000000E+00  0.000000E+00  0.000000E+00  0.000000E+00  0.000000E+00  0.000000E+00  0.000000E+00  0.000000E+00  4.282589E-03 -7.441478E-05 -1.335745E-04  4.279858E-03                                                                                                                                                                                                                                                                                                                                                                                                                                                                                              
  3.750000E+02  1.250000E+02 -5.425000E+03  3.715792E-09 -4.538918E-11 -1.307199E-10  3.713214E-09  2.169080E-11 -2.682531E-13 -7.725642E-13  2.167537E-11  0.000000E+00  0.000000E+00  0.000000E+00  0.000000E+00  0.000000E+00  0.000000E+00  0.000000E+00  0.000000E+00  4.187642E-03 -5.115292E-05 -1.473197E-04  4.184737E-03                                                                                                                                                                                                                                                                                                                                                                                                                                                                                              
  6.250000E+02  1.250000E+02 -5.425000E+03  3.642029E-09  2.879853E-10 -1.481758E-10  3.627601E-09  2.126196E-11  1.702015E-12 -8.757305E-13  2.117563E-11  0.000000E+00  0.000000E+00  0.000000E+00  0.000000E+00  0.000000E+00  0.000000E+00  0.000000E+00  0.000000E+00  4.104522E-03  3.245558E-04 -1.669928E-04  4.088261E-03                                                                                                                                                                                                                                                                                                                                                                                                                                                                                              
  7.600000E+02  1.250000E+02 -5.425000E+03  3.709809E-09  5.500792E-10 -1.572215E-10  3.665430E-09  2.166198E-11  3.251011E-12 -9.291913E-13  2.139647E-11  0.000000E+00  0.000000E+00  0.000000E+00  0.000000E+00  0.000000E+00  0.000000E+00  0.000000E+00  0.000000E+00  4.180906E-03  6.199323E-04 -1.771870E-04  4.130892E-03                                                                                                                                                                                                                                                                                                                                                                                                                                                                                              
  7.800000E+02  1.250000E+02 -5.425000E+03  3.720840E-09  5.801042E-10 -1.585451E-10  3.671920E-09  2.172703E-11  3.428461E-12 -9.370142E-13  2.143435E-11  0.000000E+00  0.000000E+00  0.000000E+00  0.000000E+00  0.000000E+00  0.000000E+00  0.000000E+00  0.000000E+00  4.193338E-03  6.537699E-04 -1.786787E-04  4.138205E-03                                                                                                                                                                                                                                                                                                                                                                                                                                                                                              
  8.000000E+02  1.250000E+02 -5.425000E+03  3.732708E-09  6.084906E-10 -1.598507E-10  3.679306E-09  2.179695E-11  3.596227E-12 -9.447299E-13  2.147747E-11  0.000000E+00  0.000000E+00  0.000000E+00  0.000000E+00  0.000000E+00  0.000000E+00  0.000000E+00  0.000000E+00  4.206713E-03  6.857609E-04 -1.801500E-04  4.146530E-03                                                                                                                                                                                                                                                                                                                                                                                                                                                                                              
  9.350000E+02  1.250000E+02 -5.425000E+03  3.804528E-09  7.125552E-10 -1.685300E-10  3.733403E-09  2.221876E-11  4.211258E-12 -9.960258E-13  2.179327E-11  0.000000E+00  0.000000E+00  0.000000E+00  0.000000E+00  0.000000E+00  0.000000E+00  0.000000E+00  0.000000E+00  4.287650E-03  8.030400E-04 -1.899313E-04  4.207492E-03                                                                                                                                                                                                                                                                                                                                                                                                                                                                                              
  1.185000E+03  1.250000E+02 -5.425000E+03  3.929117E-09  6.870423E-10 -1.809226E-10  3.864350E-09  2.294519E-11  4.060477E-12 -1.069268E-12  2.255773E-11  0.000000E+00  0.000000E+00  0.000000E+00  0.000000E+00  0.000000E+00  0.000000E+00  0.000000E+00  0.000000E+00  4.428057E-03  7.742868E-04 -2.038972E-04  4.355065E-03                                                                                                                                                                                                                                                                                                                                                                                                                                                                                              
  1.435000E+03  1.250000E+02 -5.425000E+03  3.981355E-09  2.856081E-10 -1.823995E-10  3.966906E-09  2.324291E-11  1.687969E-12 -1.077997E-12  2.315646E-11  0.000000E+00  0.000000E+00  0.000000E+00  0.000000E+00  0.000000E+00  0.000000E+00  0.000000E+00  0.000000E+00  4.486931E-03  3.218761E-04 -2.055615E-04  4.470647E-03                                                                                                                                                                                                                                                                                                                                                                                                                                                                                              
  1.250000E+02  1.250000E+02 -5.225000E+03  7.911279E-09 -1.271529E-10 -1.446491E-10  7.908935E-09  4.572858E-11 -7.327741E-13 -8.336035E-13  4.571511E-11  0.000000E+00  0.000000E+00  0.000000E+00  0.000000E+00  0.000000E+00  0.000000E+00  0.000000E+00  0.000000E+00  8.567486E-03 -1.325330E-04 -1.507694E-04  8.565134E-03                                                                                                                                                                                                                                                                                                                                                                                                                                                                                              
  3.750000E+02  1.250000E+02 -5.225000E+03  7.560294E-09 -1.739333E-10 -1.691548E-10  7.556400E-09  4.370899E-11 -1.002366E-12 -9.748273E-13  4.368662E-11  0.000000E+00  0.000000E+00  0.000000E+00  0.000000E+00  0.000000E+00  0.000000E+00  0.000000E+00  0.000000E+00  8.194436E-03 -1.812928E-04 -1.763121E-04  8.190533E-03                                                                                                                                                                                                                                                                                                                                                                                                                                                                                              
  6.250000E+02  1.250000E+02 -5.225000E+03  7.148847E-09  2.618295E-10 -2.010692E-10  7.141221E-09  4.134305E-11  1.508907E-12 -1.158749E-12  4.129926E-11  0.000000E+00  0.000000E+00  0.000000E+00  0.000000E+00  0.000000E+00  0.000000E+00  0.000000E+00  0.000000E+00  7.758189E-03  2.729084E-04 -2.095782E-04  7.750555E-03                                                                                                                                                                                                                                                                                                                                                                                                                                                                                              
  7.600000E+02  1.250000E+02 -5.225000E+03  7.325837E-09  6.403266E-10 -2.122573E-10  7.294712E-09  4.236132E-11  3.690164E-12 -1.223226E-12  4.218255E-11  0.000000E+00  0.000000E+00  0.000000E+00  0.000000E+00  0.000000E+00  0.000000E+00  0.000000E+00  0.000000E+00  7.944924E-03  6.674217E-04 -2.212396E-04  7.913748E-03                                                                                                                                                                                                                                                                                                                                                                                                                                                                                              
  7.800000E+02  1.250000E+02 -5.225000E+03  7.358738E-09  6.853939E-10 -2.138403E-10  7.323629E-09  4.255054E-11  3.949885E-12 -1.232349E-12  4.234889E-11  0.000000E+00  0.000000E+00  0.000000E+00  0.000000E+00  0.000000E+00  0.000000E+00  0.000000E+00  0.000000E+00  7.979609E-03  7.143967E-04 -2.228895E-04  7.944439E-03                                                                                                                                                                                                                                                                                                                                                                                                                                                                                              
  8.000000E+02  1.250000E+02 -5.225000E+03  7.408896E-09  7.269091E-10 -2.153519E-10  7.370005E-09  4.283877E-11  4.189137E-12 -1.241061E-12  4.261539E-11  0.000000E+00  0.000000E+00  0.000000E+00  0.000000E+00  0.000000E+00  0.000000E+00  0.000000E+00  0.000000E+00  8.032370E-03  7.576689E-04 -2.244651E-04  7.993404E-03                                                                                                                                                                                                                                                                                                                                                                                                                                                                                              
  9.350000E+02  1.250000E+02 -5.225000E+03  7.676152E-09  8.532747E-10 -2.246054E-10  7.625273E-09  4.437574E-11  4.917384E-12 -1.294389E-12  4.408344E-11  0.000000E+00  0.000000E+00  0.000000E+00  0.000000E+00  0.000000E+00  0.000000E+00  0.000000E+00  0.000000E+00  8.315078E-03  8.893832E-04 -2.341099E-04  8.264062E-03                                                                                                                                                                                                                                                                                                                                                                                                                                                                                              
  1.185000E+03  1.250000E+02 -5.225000E+03  8.185404E-09  8.263067E-10 -2.364846E-10  8.140155E-09  4.730711E-11  4.761986E-12 -1.362854E-12  4.704709E-11  0.000000E+00  0.000000E+00  0.000000E+00  0.000000E+00  0.000000E+00  0.000000E+00  0.000000E+00  0.000000E+00  8.857293E-03  8.612793E-04 -2.464931E-04  8.811872E-03                                                                                                                                                                                                                                                                                                                                                                                                                                                                                              
  1.435000E+03  1.250000E+02 -5.225000E+03  8.559132E-09  3.462640E-10 -2.274022E-10  8.549101E-09  4.945859E-11  1.995518E-12 -1.310519E-12  4.940093E-11  0.000000E+00  0.000000E+00  0.000000E+00  0.000000E+00  0.000000E+00  0.000000E+00  0.000000E+00  0.000000E+00  9.256957E-03  3.609219E-04 -2.370290E-04  9.246881E-03                                                                                                                                                                                                                                                                                                                                                                                                                                                                                              
  1.250000E+02  1.250000E+02 -4.975000E+03  8.895672E-09 -3.712723E-10 -2.591343E-10  8.884142E-09  5.058418E-11 -2.111216E-12 -1.473553E-12  5.051862E-11  0.000000E+00  0.000000E+00  0.000000E+00  0.000000E+00  0.000000E+00  0.000000E+00  0.000000E+00  0.000000E+00  9.039091E-03 -3.689120E-04 -2.574896E-04  9.027889E-03                                                                                                                                                                                                                                                                                                                                                                                                                                                                                              
  3.750000E+02  1.250000E+02 -4.975000E+03  8.094431E-09 -7.240457E-10 -3.562863E-10  8.054107E-09  4.603079E-11 -4.117222E-12 -2.025986E-12  4.580150E-11  0.000000E+00  0.000000E+00  0.000000E+00  0.000000E+00  0.000000E+00  0.000000E+00  0.000000E+00  0.000000E+00  8.229104E-03 -7.194323E-04 -3.540162E-04  8.189948E-03                                                                                                                                                                                                                                                                                                                                                                                                                                                                                              
  6.250000E+02  1.250000E+02 -4.975000E+03  6.693105E-09  1.505660E-10 -4.750238E-10  6.674529E-09  3.807966E-11  8.561654E-13 -2.701147E-12  3.797409E-11  0.000000E+00  0.000000E+00  0.000000E+00  0.000000E+00  0.000000E+00  0.000000E+00  0.000000E+00  0.000000E+00  6.821007E-03  1.496044E-04 -4.719829E-04  6.803013E-03                                                                                                                                                                                                                                                                                                                                                                                                                                                                                              
  7.600000E+02  1.250000E+02 -4.975000E+03  6.780244E-09  1.095426E-09 -4.950562E-10  6.672831E-09  3.858379E-11  6.228997E-12 -2.815060E-12  3.797346E-11  0.000000E+00  0.000000E+00  0.000000E+00  0.000000E+00  0.000000E+00  0.000000E+00  0.000000E+00  0.000000E+00  6.910973E-03  1.088432E-03 -4.918847E-04  6.806975E-03                                                                                                                                                                                                                                                                                                                                                                                                                                                                                              
  7.800000E+02  1.250000E+02 -4.975000E+03  6.791836E-09  1.278471E-09 -4.984606E-10  6.651773E-09  3.865195E-11  7.269871E-12 -2.834420E-12  3.785615E-11  0.000000E+00  0.000000E+00  0.000000E+00  0.000000E+00  0.000000E+00  0.000000E+00  0.000000E+00  0.000000E+00  6.922739E-03  1.270309E-03 -4.952684E-04  6.787145E-03                                                                                                                                                                                                                                                                                                                                                                                                                                                                                              
  8.000000E+02  1.250000E+02 -4.975000E+03  7.770576E-09  1.395603E-09 -5.030148E-10  7.627655E-09  4.419014E-11  7.935967E-12 -2.860329E-12  4.337750E-11  0.000000E+00  0.000000E+00  0.000000E+00  0.000000E+00  0.000000E+00  0.000000E+00  0.000000E+00  0.000000E+00  7.897572E-03  1.386711E-03 -4.997953E-04  7.758794E-03                                                                                                                                                                                                                                                                                                                                                                                                                                                                                              
  9.350000E+02  1.250000E+02 -4.975000E+03  8.371371E-09  1.521417E-09 -5.064162E-10  8.216367E-09  4.760433E-11  8.651472E-12 -2.879692E-12  4.672292E-11  0.000000E+00  0.000000E+00  0.000000E+00  0.000000E+00  0.000000E+00  0.000000E+00  0.000000E+00  0.000000E+00  8.504220E-03  1.511754E-03 -5.031903E-04  8.353631E-03                                                                                                                                                                                                                                                                                                                                                                                                                                                                                              
  1.185000E+03  1.250000E+02 -4.975000E+03  9.426614E-09  1.417784E-09 -5.168795E-10  9.305041E-09  5.360364E-11  8.062263E-12 -2.939233E-12  5.291230E-11  0.000000E+00  0.000000E+00  0.000000E+00  0.000000E+00  0.000000E+00  0.000000E+00  0.000000E+00  0.000000E+00  9.572564E-03  1.408819E-03 -5.136048E-04  9.454386E-03                                                                                                                                                                                                                                                                                                                                                                                                                                                                                              
  1.435000E+03  1.250000E+02 -4.975000E+03  1.026127E-08  6.055859E-10 -4.337943E-10  1.023420E-08  5.834772E-11  3.443712E-12 -2.466811E-12  5.819375E-11  0.000000E+00  0.000000E+00  0.000000E+00  0.000000E+00  0.000000E+00  0.000000E+00  0.000000E+00  0.000000E+00  1.041928E-02  6.017741E-04 -4.310689E-04  1.039295E-02                                                                                                                                                                                                                                                                                                                                                                                                                                                                                              
  1.250000E+02  1.250000E+02 -4.725000E+03  9.925799E-09 -2.026877E-10 -1.401610E-10  9.922739E-09  5.422570E-11 -1.137016E-12 -7.863424E-13  5.420807E-11  0.000000E+00  0.000000E+00  0.000000E+00  0.000000E+00  0.000000E+00  0.000000E+00  0.000000E+00  0.000000E+00  9.601778E-03 -1.907769E-04 -1.320357E-04  9.598974E-03                                                                                                                                                                                                                                                                                                                                                                                                                                                                                              
  3.750000E+02  1.250000E+02 -4.725000E+03  8.621042E-09 -3.692809E-10 -1.927822E-10  8.610972E-09  4.711292E-11 -2.070954E-12 -1.080911E-12  4.705496E-11  0.000000E+00  0.000000E+00  0.000000E+00  0.000000E+00  0.000000E+00  0.000000E+00  0.000000E+00  0.000000E+00  8.334834E-03 -3.470778E-04 -1.810828E-04  8.325635E-03                                                                                                                                                                                                                                                                                                                                                                                                                                                                                              
  6.250000E+02  1.250000E+02 -4.725000E+03  6.074502E-09  2.116105E-10 -2.596835E-10  6.065259E-09  3.325362E-11  1.185383E-12 -1.454605E-12  3.320063E-11  0.000000E+00  0.000000E+00  0.000000E+00  0.000000E+00  0.000000E+00  0.000000E+00  0.000000E+00  0.000000E+00  5.874018E-03  1.985371E-04 -2.428251E-04  5.865637E-03                                                                                                                                                                                                                                                                                                                                                                                                                                                                                              
  7.600000E+02  1.250000E+02 -4.725000E+03  5.557677E-09  8.321834E-10 -3.182680E-10  5.485795E-09  3.050626E-11  4.663187E-12 -1.782788E-12  3.009499E-11  0.000000E+00  0.000000E+00  0.000000E+00  0.000000E+00  0.000000E+00  0.000000E+00  0.000000E+00  0.000000E+00  5.380401E-03  7.807050E-04 -2.976885E-04  5.315129E-03                                                                                                                                                                                                                                                                                                                                                                                                                                                                                              
  7.800000E+02  1.250000E+02 -4.725000E+03  5.419657E-09  9.910763E-10 -3.295449E-10  5.318068E-09  2.977346E-11  5.554410E-12 -1.845984E-12  2.919246E-11  0.000000E+00  0.000000E+00  0.000000E+00  0.000000E+00  0.000000E+00  0.000000E+00  0.000000E+00  0.000000E+00  5.247399E-03  9.296590E-04 -3.083026E-04  5.155179E-03                                                                                                                                                                                                                                                                                                                                                                                                                                                                                              
  8.000000E+02  1.250000E+02 -4.725000E+03  8.307912E-09  1.075510E-09 -3.439768E-10  8.230818E-09  4.538685E-11  6.029864E-12 -1.927523E-12  4.494321E-11  0.000000E+00  0.000000E+00  0.000000E+00  0.000000E+00  0.000000E+00  0.000000E+00  0.000000E+00  0.000000E+00  8.019863E-03  1.010068E-03 -3.219122E-04  7.949486E-03                                                                                                                                                                                                                                                                                                                                                                                                                                                                                              
  9.350000E+02  1.250000E+02 -4.725000E+03  9.091959E-09  1.171605E-09 -4.209039E-10  9.006326E-09  4.968635E-11  6.571710E-12 -2.359897E-12  4.919326E-11  0.000000E+00  0.000000E+00  0.000000E+00  0.000000E+00  0.000000E+00  0.000000E+00  0.000000E+00  0.000000E+00  8.783228E-03  1.102399E-03 -3.951648E-04  8.704806E-03                                                                                                                                                                                                                                                                                                                                                                                                                                                                                              
  1.185000E+03  1.250000E+02 -4.725000E+03  1.076996E-08  1.233086E-09 -5.610092E-10  1.068442E-08  5.883959E-11  6.919571E-12 -3.147319E-12  5.834648E-11  0.000000E+00  0.000000E+00  0.000000E+00  0.000000E+00  0.000000E+00  0.000000E+00  0.000000E+00  0.000000E+00  1.041201E-02  1.162146E-03 -5.280259E-04  1.033346E-02                                                                                                                                                                                                                                                                                                                                                                                                                                                                                              