Title="TOUGHREACT V3.30-OMP flowvector.tec: Liq & Gas Fluxes (kg/s/m^2), Pore Velocities (m/s), & Heat Fluxes (J/s/m2)"                                                                                                                                                                                                                                                                                                                                                                                                                                                                                                                                                                                                                                                                                                         
Variables= "X(m)"     "Y(m)"      "Z(m)"     "FluxLiq"   "FluxLiq_X"   "FluxLiq_Y"   "FluxLiq_Z"   "PorVelLiq"  "PorVelLiqX"  "PorVelLiqY"  "PorVelLiqZ"     "FluxGas"   "FluxGas_X"   "FluxGas_Y"   "FluxGas_Z"   "PorVelGas"  "PorVelGasX"  "PorVelGasY"  "PorVelGasZ"    "HeatFlux"  "HeatFlux_X"  "HeatFlux_Y"  "HeatFlux_Z"                                                                                                                                                                                                                                                                                                                                                                                                                                                                                                
Zone T= "1.00000000E+07 sec" I=     9 J=    10 K=    23 F=Point
  1.250000E+02  1.250000E+02 -5.425000E+03  3.634669E-07 -1.360054E-14 -8.754295E-15  3.634669E-07  2.132604E-09 -8.020779E-17 -5.162754E-17  2.132604E-09  0.000000E+00  0.000000E+00  0.000000E+00  0.000000E+00  0.000000E+00  0.000000E+00  0.000000E+00  0.000000E+00  3.924176E-01 -1.468385E-08 -9.451590E-09  3.924176E-01                                                                                                                                                                                                                                                                                                                                                                                                                                                                                              
  3.750000E+02  1.250000E+02 -5.425000E+03  3.634668E-07 -6.620481E-14 -5.417740E-14  3.634668E-07  2.132603E-09 -3.904360E-16 -3.195056E-16  2.132603E-09  0.000000E+00  0.000000E+00  0.000000E+00  0.000000E+00  0.000000E+00  0.000000E+00  0.000000E+00  0.000000E+00  3.924176E-01 -7.147814E-08 -5.849273E-08  3.924176E-01                                                                                                                                                                                                                                                                                                                                                                                                                                                                                              
  6.250000E+02  1.250000E+02 -5.425000E+03  3.634664E-07 -3.048587E-15 -2.722232E-13  3.634664E-07  2.132601E-09 -1.797873E-17 -1.605408E-15  2.132601E-09  0.000000E+00  0.000000E+00  0.000000E+00  0.000000E+00  0.000000E+00  0.000000E+00  0.000000E+00  0.000000E+00  3.924171E-01 -3.291413E-09 -2.939062E-07  3.924171E-01                                                                                                                                                                                                                                                                                                                                                                                                                                                                                              
  7.600000E+02  1.250000E+02 -5.425000E+03  3.634666E-07  1.001784E-13 -1.644479E-13  3.634666E-07  2.132602E-09  5.907914E-16 -9.698145E-16  2.132602E-09  0.000000E+00  0.000000E+00  0.000000E+00  0.000000E+00  0.000000E+00  0.000000E+00  0.000000E+00  0.000000E+00  3.924174E-01  1.081577E-07 -1.775465E-07  3.924174E-01                                                                                                                                                                                                                                                                                                                                                                                                                                                                                              
  7.800000E+02  1.250000E+02 -5.425000E+03  3.634666E-07  1.014955E-13 -1.486352E-13  3.634666E-07  2.132602E-09  5.985589E-16 -8.765609E-16  2.132602E-09  0.000000E+00  0.000000E+00  0.000000E+00  0.000000E+00  0.000000E+00  0.000000E+00  0.000000E+00  0.000000E+00  3.924174E-01  1.095797E-07 -1.604743E-07  3.924174E-01                                                                                                                                                                                                                                                                                                                                                                                                                                                                                              
  8.000000E+02  1.250000E+02 -5.425000E+03  3.634667E-07  1.013134E-13 -1.332853E-13  3.634667E-07  2.132603E-09  5.974851E-16 -7.860360E-16  2.132603E-09  0.000000E+00  0.000000E+00  0.000000E+00  0.000000E+00  0.000000E+00  0.000000E+00  0.000000E+00  0.000000E+00  3.924174E-01  1.093832E-07 -1.439017E-07  3.924174E-01                                                                                                                                                                                                                                                                                                                                                                                                                                                                                              
  9.350000E+02  1.250000E+02 -5.425000E+03  3.634669E-07  6.021518E-14 -3.396044E-14  3.634669E-07  2.132604E-09  3.551128E-16 -2.002782E-16  2.132604E-09  0.000000E+00  0.000000E+00  0.000000E+00  0.000000E+00  0.000000E+00  0.000000E+00  0.000000E+00  0.000000E+00  3.924176E-01  6.501142E-08 -3.666545E-08  3.924176E-01                                                                                                                                                                                                                                                                                                                                                                                                                                                                                              
  1.185000E+03  1.250000E+02 -5.425000E+03  3.634669E-07  9.932382E-15 -3.292903E-15  3.634669E-07  2.132604E-09  5.857519E-17 -1.941955E-17  2.132604E-09  0.000000E+00  0.000000E+00  0.000000E+00  0.000000E+00  0.000000E+00  0.000000E+00  0.000000E+00  0.000000E+00  3.924177E-01  1.072351E-08 -3.555189E-09  3.924177E-01                                                                                                                                                                                                                                                                                                                                                                                                                                                                                              
  1.435000E+03  1.250000E+02 -5.425000E+03  3.634669E-07  1.577888E-16 -1.283434E-17  3.634669E-07  2.132604E-09  9.305429E-19 -7.568920E-20  2.132604E-09  0.000000E+00  0.000000E+00  0.000000E+00  0.000000E+00  0.000000E+00  0.000000E+00  0.000000E+00  0.000000E+00  3.924177E-01  1.703569E-10 -1.385662E-11  3.924177E-01                                                                                                                                                                                                                                                                                                                                                                                                                                                                                              
  1.250000E+02  1.250000E+02 -5.225000E+03  8.097367E-07 -7.497906E-14 -4.295355E-14  8.097367E-07  4.721471E-09 -4.376330E-16 -2.507086E-16  4.721471E-09  0.000000E+00  0.000000E+00  0.000000E+00  0.000000E+00  0.000000E+00  0.000000E+00  0.000000E+00  0.000000E+00  8.567739E-01 -7.801781E-08 -4.469438E-08  8.567739E-01                                                                                                                                                                                                                                                                                                                                                                                                                                                                                              
  3.750000E+02  1.250000E+02 -5.225000E+03  8.097360E-07 -4.372867E-13 -3.659485E-13  8.097360E-07  4.721467E-09 -2.552327E-15 -2.135945E-15  4.721467E-09  0.000000E+00  0.000000E+00  0.000000E+00  0.000000E+00  0.000000E+00  0.000000E+00  0.000000E+00  0.000000E+00  8.567732E-01 -4.550091E-07 -3.807797E-07  8.567732E-01                                                                                                                                                                                                                                                                                                                                                                                                                                                                                              
  6.250000E+02  1.250000E+02 -5.225000E+03  8.097313E-07 -3.823498E-15 -2.372193E-12  8.097313E-07  4.721440E-09 -2.231675E-17 -1.384586E-14  4.721440E-09  0.000000E+00  0.000000E+00  0.000000E+00  0.000000E+00  0.000000E+00  0.000000E+00  0.000000E+00  0.000000E+00  8.567682E-01 -3.978457E-09 -2.468333E-06  8.567682E-01                                                                                                                                                                                                                                                                                                                                                                                                                                                                                              
  7.600000E+02  1.250000E+02 -5.225000E+03  8.097340E-07  7.122567E-13 -1.319734E-12  8.097340E-07  4.721456E-09  4.157254E-15 -7.702939E-15  4.721456E-09  0.000000E+00  0.000000E+00  0.000000E+00  0.000000E+00  0.000000E+00  0.000000E+00  0.000000E+00  0.000000E+00  8.567711E-01  7.411231E-07 -1.373220E-06  8.567711E-01                                                                                                                                                                                                                                                                                                                                                                                                                                                                                              
  7.800000E+02  1.250000E+02 -5.225000E+03  8.097344E-07  6.960932E-13 -1.172153E-12  8.097344E-07  4.721458E-09  4.062912E-15 -6.841546E-15  4.721458E-09  0.000000E+00  0.000000E+00  0.000000E+00  0.000000E+00  0.000000E+00  0.000000E+00  0.000000E+00  0.000000E+00  8.567715E-01  7.243045E-07 -1.219658E-06  8.567715E-01                                                                                                                                                                                                                                                                                                                                                                                                                                                                                              
  8.000000E+02  1.250000E+02 -5.225000E+03  8.097347E-07  6.693379E-13 -1.036238E-12  8.097347E-07  4.721460E-09  3.906749E-15 -6.048245E-15  4.721460E-09  0.000000E+00  0.000000E+00  0.000000E+00  0.000000E+00  0.000000E+00  0.000000E+00  0.000000E+00  0.000000E+00  8.567718E-01  6.964649E-07 -1.078234E-06  8.567718E-01                                                                                                                                                                                                                                                                                                                                                                                                                                                                                              
  9.350000E+02  1.250000E+02 -5.225000E+03  8.097367E-07  3.747685E-13 -2.065289E-13  8.097367E-07  4.721472E-09  2.187425E-15 -1.205455E-15  4.721472E-09  0.000000E+00  0.000000E+00  0.000000E+00  0.000000E+00  0.000000E+00  0.000000E+00  0.000000E+00  0.000000E+00  8.567740E-01  3.899572E-07 -2.148991E-07  8.567740E-01                                                                                                                                                                                                                                                                                                                                                                                                                                                                                              
  1.185000E+03  1.250000E+02 -5.225000E+03  8.097371E-07  5.094135E-14 -2.029418E-14  8.097371E-07  4.721474E-09  2.973312E-16 -1.184518E-16  4.721474E-09  0.000000E+00  0.000000E+00  0.000000E+00  0.000000E+00  0.000000E+00  0.000000E+00  0.000000E+00  0.000000E+00  8.567744E-01  5.300591E-08 -2.111666E-08  8.567744E-01                                                                                                                                                                                                                                                                                                                                                                                                                                                                                              
  1.435000E+03  1.250000E+02 -5.225000E+03  8.097372E-07  3.190142E-15 -3.194314E-15  8.097372E-07  4.721474E-09  1.862002E-17 -1.864437E-17  4.721474E-09  0.000000E+00  0.000000E+00  0.000000E+00  0.000000E+00  0.000000E+00  0.000000E+00  0.000000E+00  0.000000E+00  8.567744E-01  3.319432E-09 -3.323773E-09  8.567744E-01                                                                                                                                                                                                                                                                                                                                                                                                                                                                                              
  1.250000E+02  1.250000E+02 -4.975000E+03  8.755017E-07 -6.812728E-13 -4.127866E-13  8.755017E-07  5.049299E-09 -3.928164E-15 -2.380094E-15  5.049299E-09  0.000000E+00  0.000000E+00  0.000000E+00  0.000000E+00  0.000000E+00  0.000000E+00  0.000000E+00  0.000000E+00  8.900620E-01 -6.756762E-07 -4.093956E-07  8.900620E-01                                                                                                                                                                                                                                                                                                                                                                                                                                                                                              
  3.750000E+02  1.250000E+02 -4.975000E+03  8.754978E-07 -5.200001E-12 -4.479335E-12  8.754978E-07  5.049277E-09 -2.998279E-14 -2.582748E-14  5.049277E-09  0.000000E+00  0.000000E+00  0.000000E+00  0.000000E+00  0.000000E+00  0.000000E+00  0.000000E+00  0.000000E+00  8.900581E-01 -5.157283E-06 -4.442537E-06  8.900581E-01                                                                                                                                                                                                                                                                                                                                                                                                                                                                                              
  6.250000E+02  1.250000E+02 -4.975000E+03  8.754546E-07  2.785657E-13 -4.142378E-11  8.754546E-07  5.049029E-09  1.606187E-15 -2.388462E-13  5.049029E-09  0.000000E+00  0.000000E+00  0.000000E+00  0.000000E+00  0.000000E+00  0.000000E+00  0.000000E+00  0.000000E+00  8.900150E-01  2.762773E-07 -4.108349E-05  8.900150E-01                                                                                                                                                                                                                                                                                                                                                                                                                                                                                              
  7.600000E+02  1.250000E+02 -4.975000E+03  8.754828E-07  9.298894E-12 -2.014613E-11  8.754828E-07  5.049191E-09  5.361667E-14 -1.161609E-13  5.049191E-09  0.000000E+00  0.000000E+00  0.000000E+00  0.000000E+00  0.000000E+00  0.000000E+00  0.000000E+00  0.000000E+00  8.900432E-01  9.222504E-06 -1.998063E-05  8.900432E-01                                                                                                                                                                                                                                                                                                                                                                                                                                                                                              
  7.800000E+02  1.250000E+02 -4.975000E+03  8.754865E-07  8.602659E-12 -1.734113E-11  8.754865E-07  5.049212E-09  4.960224E-14 -9.998753E-14  5.049212E-09  0.000000E+00  0.000000E+00  0.000000E+00  0.000000E+00  0.000000E+00  0.000000E+00  0.000000E+00  0.000000E+00  8.900468E-01  8.531988E-06 -1.719867E-05  8.900468E-01                                                                                                                                                                                                                                                                                                                                                                                                                                                                                              
  8.000000E+02  1.250000E+02 -4.975000E+03  8.754894E-07  7.763288E-12 -1.498241E-11  8.754894E-07  5.049229E-09  4.476249E-14 -8.638736E-14  5.049229E-09  0.000000E+00  0.000000E+00  0.000000E+00  0.000000E+00  0.000000E+00  0.000000E+00  0.000000E+00  0.000000E+00  8.900498E-01  7.699513E-06 -1.485933E-05  8.900498E-01                                                                                                                                                                                                                                                                                                                                                                                                                                                                                              
  9.350000E+02  1.250000E+02 -4.975000E+03  8.755044E-07  4.043366E-12 -2.209797E-12  8.755044E-07  5.049315E-09  2.331372E-14 -1.274151E-14  5.049315E-09  0.000000E+00  0.000000E+00  0.000000E+00  0.000000E+00  0.000000E+00  0.000000E+00  0.000000E+00  0.000000E+00  8.900647E-01  4.010150E-06 -2.191643E-06  8.900647E-01                                                                                                                                                                                                                                                                                                                                                                                                                                                                                              
  1.185000E+03  1.250000E+02 -4.975000E+03  8.755061E-07  3.922322E-13 -1.840709E-13  8.755061E-07  5.049325E-09  2.261579E-15 -1.061338E-15  5.049325E-09  0.000000E+00  0.000000E+00  0.000000E+00  0.000000E+00  0.000000E+00  0.000000E+00  0.000000E+00  0.000000E+00  8.900664E-01  3.890100E-07 -1.825587E-07  8.900664E-01                                                                                                                                                                                                                                                                                                                                                                                                                                                                                              
  1.435000E+03  1.250000E+02 -4.975000E+03  8.755061E-07  1.109565E-14 -3.460910E-14  8.755061E-07  5.049325E-09  6.397663E-17 -1.995533E-16  5.049325E-09  0.000000E+00  0.000000E+00  0.000000E+00  0.000000E+00  0.000000E+00  0.000000E+00  0.000000E+00  0.000000E+00  8.900664E-01  1.100450E-08 -3.432479E-08  8.900664E-01                                                                                                                                                                                                                                                                                                                                                                                                                                                                                              
  1.250000E+02  1.250000E+02 -4.725000E+03  3.257443E-07 -3.795146E-12 -2.716222E-12  3.257443E-07  1.872985E-09 -2.163052E-14 -1.548117E-14  1.872985E-09  0.000000E+00  0.000000E+00  0.000000E+00  0.000000E+00  0.000000E+00  0.000000E+00  0.000000E+00  0.000000E+00  3.315782E-01 -3.579730E-06 -2.562047E-06  3.315782E-01                                                                                                                                                                                                                                                                                                                                                                                                                                                                                              
  3.750000E+02  1.250000E+02 -4.725000E+03  3.257525E-07 -4.572548E-11 -3.915143E-11  3.257525E-07  1.873031E-09 -2.606133E-13 -2.231444E-13  1.873031E-09  0.000000E+00  0.000000E+00  0.000000E+00  0.000000E+00  0.000000E+00  0.000000E+00  0.000000E+00  0.000000E+00  3.315854E-01 -4.313005E-05 -3.692916E-05  3.315854E-01                                                                                                                                                                                                                                                                                                                                                                                                                                                                                              
  6.250000E+02  1.250000E+02 -4.725000E+03  3.256802E-07  8.752711E-12 -6.718421E-10  3.256795E-07  1.872642E-09  4.988625E-14 -3.829174E-12  1.872638E-09  0.000000E+00  0.000000E+00  0.000000E+00  0.000000E+00  0.000000E+00  0.000000E+00  0.000000E+00  0.000000E+00  3.315470E-01  8.255897E-06 -6.337078E-04  3.315464E-01                                                                                                                                                                                                                                                                                                                                                                                                                                                                                              
  7.600000E+02  1.250000E+02 -4.725000E+03  3.257692E-07  9.534146E-11 -2.529260E-10  3.257691E-07  1.873131E-09  5.434006E-13 -1.441556E-12  1.873131E-09  0.000000E+00  0.000000E+00  0.000000E+00  0.000000E+00  0.000000E+00  0.000000E+00  0.000000E+00  0.000000E+00  3.316073E-01  8.992977E-05 -2.385696E-04  3.316072E-01                                                                                                                                                                                                                                                                                                                                                                                                                                                                                              
  7.800000E+02  1.250000E+02 -4.725000E+03  3.257959E-07  8.051839E-11 -1.983938E-10  3.257958E-07  1.873278E-09  4.589162E-13 -1.130749E-12  1.873277E-09  0.000000E+00  0.000000E+00  0.000000E+00  0.000000E+00  0.000000E+00  0.000000E+00  0.000000E+00  0.000000E+00  3.316251E-01  7.594807E-05 -1.871327E-04  3.316250E-01                                                                                                                                                                                                                                                                                                                                                                                                                                                                                              
  8.000000E+02  1.250000E+02 -4.725000E+03  3.257980E-07  6.285924E-11 -1.608983E-10  3.257980E-07  1.873289E-09  3.582675E-13 -9.170429E-13  1.873289E-09  0.000000E+00  0.000000E+00  0.000000E+00  0.000000E+00  0.000000E+00  0.000000E+00  0.000000E+00  0.000000E+00  3.316262E-01  5.929127E-05 -1.517655E-04  3.316261E-01                                                                                                                                                                                                                                                                                                                                                                                                                                                                                              
  9.350000E+02  1.250000E+02 -4.725000E+03  3.257776E-07  2.867574E-11 -1.547386E-11  3.257776E-07  1.873174E-09  1.634380E-13 -8.819356E-14  1.873174E-09  0.000000E+00  0.000000E+00  0.000000E+00  0.000000E+00  0.000000E+00  0.000000E+00  0.000000E+00  0.000000E+00  3.316088E-01  2.704807E-05 -1.459554E-05  3.316087E-01                                                                                                                                                                                                                                                                                                                                                                                                                                                                                              
  1.185000E+03  1.250000E+02 -4.725000E+03  3.257730E-07  1.608005E-12 -1.151447E-12  3.257730E-07  1.873148E-09  9.164856E-15 -6.562699E-15  1.873148E-09  0.000000E+00  0.000000E+00  0.000000E+00  0.000000E+00  0.000000E+00  0.000000E+00  0.000000E+00  0.000000E+00  3.316047E-01  1.516732E-06 -1.086090E-06  3.316047E-01                                                                                                                                                                                                                                                                                                                                                                                                                                                                                              