Title="TOUGHREACT V3.30-OMP flowvector.tec: Liq & Gas Fluxes (kg/s/m^2), Pore Velocities (m/s), & Heat Fluxes (J/s/m2)"                                                                                                                                                                                                                                                                                                                                                                                                                                                                                                                                                                                                                                                                                                         
Variables= "X(m)"     "Y(m)"      "Z(m)"     "FluxLiq"   "FluxLiq_X"   "FluxLiq_Y"   "FluxLiq_Z"   "PorVelLiq"  "PorVelLiqX"  "PorVelLiqY"  "PorVelLiqZ"     "FluxGas"   "FluxGas_X"   "FluxGas_Y"   "FluxGas_Z"   "PorVelGas"  "PorVelGasX"  "PorVelGasY"  "PorVelGasZ"    "HeatFlux"  "HeatFlux_X"  "HeatFlux_Y"  "HeatFlux_Z"                                                                                                                                                                                                                                                                                                                                                                                                                                                                                                
Zone T= "3.15569000E+08 sec" I=     9 J=    10 K=    23 F=Point
  1.250000E+02  1.250000E+02 -5.425000E+03  3.147539E-07  3.970292E-09  2.596253E-09 -3.147181E-07  1.838879E-09  2.335270E-11  1.527079E-11 -1.838667E-09  0.000000E+00  0.000000E+00  0.000000E+00  0.000000E+00  0.000000E+00  0.000000E+00  0.000000E+00  0.000000E+00  3.277191E-01  4.289351E-03  2.804891E-03 -3.276790E-01                                                                                                                                                                                                                                                                                                                                                                                                                                                                                              
  3.750000E+02  1.250000E+02 -5.425000E+03  3.121152E-07  7.195188E-09  3.728808E-09 -3.120100E-07  1.823498E-09  4.232129E-11  2.193257E-11 -1.822875E-09  0.000000E+00  0.000000E+00  0.000000E+00  0.000000E+00  0.000000E+00  0.000000E+00  0.000000E+00  0.000000E+00  3.249766E-01  7.773399E-03  4.028455E-03 -3.248586E-01                                                                                                                                                                                                                                                                                                                                                                                                                                                                                              
  6.250000E+02  1.250000E+02 -5.425000E+03  3.082423E-07 -1.335305E-09  4.974285E-09 -3.081993E-07  1.800897E-09 -7.854218E-12  2.925865E-11 -1.800642E-09  0.000000E+00  0.000000E+00  0.000000E+00  0.000000E+00  0.000000E+00  0.000000E+00  0.000000E+00  0.000000E+00  3.209388E-01 -1.442610E-03  5.374013E-03 -3.208905E-01                                                                                                                                                                                                                                                                                                                                                                                                                                                                                              
  7.600000E+02  1.250000E+02 -5.425000E+03  3.099253E-07 -9.546946E-09  4.346576E-09 -3.097477E-07  1.810723E-09 -5.615447E-11  2.556630E-11 -1.809671E-09  0.000000E+00  0.000000E+00  0.000000E+00  0.000000E+00  0.000000E+00  0.000000E+00  0.000000E+00  0.000000E+00  3.227021E-01 -1.031414E-02  4.695867E-03 -3.225031E-01                                                                                                                                                                                                                                                                                                                                                                                                                                                                                              
  7.800000E+02  1.250000E+02 -5.425000E+03  3.102048E-07 -1.036755E-08  4.243908E-09 -3.100024E-07  1.812354E-09 -6.098115E-11  2.496238E-11 -1.811156E-09  0.000000E+00  0.000000E+00  0.000000E+00  0.000000E+00  0.000000E+00  0.000000E+00  0.000000E+00  0.000000E+00  3.229951E-01 -1.120069E-02  4.584949E-03 -3.227683E-01                                                                                                                                                                                                                                                                                                                                                                                                                                                                                              
  8.000000E+02  1.250000E+02 -5.425000E+03  3.105061E-07 -1.112022E-08  4.132518E-09 -3.102794E-07  1.814114E-09 -6.540800E-11  2.430716E-11 -1.812771E-09  0.000000E+00  0.000000E+00  0.000000E+00  0.000000E+00  0.000000E+00  0.000000E+00  0.000000E+00  0.000000E+00  3.233109E-01 -1.201386E-02  4.464608E-03 -3.230568E-01                                                                                                                                                                                                                                                                                                                                                                                                                                                                                              
  9.350000E+02  1.250000E+02 -5.425000E+03  3.125559E-07 -1.275837E-08  3.328806E-09 -3.122776E-07  1.826070E-09 -7.504234E-11  1.957961E-11 -1.824422E-09  0.000000E+00  0.000000E+00  0.000000E+00  0.000000E+00  0.000000E+00  0.000000E+00  0.000000E+00  0.000000E+00  3.254496E-01 -1.378366E-02  3.596313E-03 -3.251377E-01                                                                                                                                                                                                                                                                                                                                                                                                                                                                                              
  1.185000E+03  1.250000E+02 -5.425000E+03  3.154350E-07 -1.116491E-08  1.818900E-09 -3.152321E-07  1.842839E-09 -6.566911E-11  1.069833E-11 -1.841638E-09  0.000000E+00  0.000000E+00  0.000000E+00  0.000000E+00  0.000000E+00  0.000000E+00  0.000000E+00  0.000000E+00  3.284426E-01 -1.206218E-02  1.965074E-03 -3.282151E-01                                                                                                                                                                                                                                                                                                                                                                                                                                                                                              
  1.435000E+03  1.250000E+02 -5.425000E+03  3.164458E-07 -4.145961E-09  1.063711E-09 -3.164168E-07  1.848705E-09 -2.438528E-11  6.256417E-12 -1.848534E-09  0.000000E+00  0.000000E+00  0.000000E+00  0.000000E+00  0.000000E+00  0.000000E+00  0.000000E+00  0.000000E+00  3.294818E-01 -4.479155E-03  1.149197E-03 -3.294493E-01                                                                                                                                                                                                                                                                                                                                                                                                                                                                                              
  1.250000E+02  1.250000E+02 -5.225000E+03  1.180719E-06  6.068292E-09  3.363439E-09 -1.180699E-06  6.823730E-09  3.526680E-11  1.954712E-11 -6.823611E-09  0.000000E+00  0.000000E+00  0.000000E+00  0.000000E+00  0.000000E+00  0.000000E+00  0.000000E+00  0.000000E+00  1.187642E+00  6.318199E-03  3.501954E-03 -1.187620E+00                                                                                                                                                                                                                                                                                                                                                                                                                                                                                              
  3.750000E+02  1.250000E+02 -5.225000E+03  1.170367E-06  1.229209E-08  5.668127E-09 -1.170289E-06  6.764125E-09  7.143799E-11  3.294174E-11 -6.763668E-09  0.000000E+00  0.000000E+00  0.000000E+00  0.000000E+00  0.000000E+00  0.000000E+00  0.000000E+00  0.000000E+00  1.177230E+00  1.279830E-02  5.901541E-03 -1.177146E+00                                                                                                                                                                                                                                                                                                                                                                                                                                                                                              
  6.250000E+02  1.250000E+02 -5.225000E+03  1.151692E-06 -5.506407E-10  8.966341E-09 -1.151657E-06  6.656593E-09 -3.200450E-12  5.211112E-11 -6.656389E-09  0.000000E+00  0.000000E+00  0.000000E+00  0.000000E+00  0.000000E+00  0.000000E+00  0.000000E+00  0.000000E+00  1.158492E+00 -5.733134E-04  9.335562E-03 -1.158454E+00                                                                                                                                                                                                                                                                                                                                                                                                                                                                                              
  7.600000E+02  1.250000E+02 -5.225000E+03  1.158976E-06 -1.422103E-08  7.523744E-09 -1.158864E-06  6.698525E-09 -8.264951E-11  4.372648E-11 -6.697872E-09  0.000000E+00  0.000000E+00  0.000000E+00  0.000000E+00  0.000000E+00  0.000000E+00  0.000000E+00  0.000000E+00  1.165809E+00 -1.480665E-02  7.833571E-03 -1.165689E+00                                                                                                                                                                                                                                                                                                                                                                                                                                                                                              
  7.800000E+02  1.250000E+02 -5.225000E+03  1.160188E-06 -1.550367E-08  7.286428E-09 -1.160062E-06  6.705503E-09 -9.010380E-11  4.234717E-11 -6.704764E-09  0.000000E+00  0.000000E+00  0.000000E+00  0.000000E+00  0.000000E+00  0.000000E+00  0.000000E+00  0.000000E+00  1.167027E+00 -1.614212E-02  7.586483E-03 -1.166891E+00                                                                                                                                                                                                                                                                                                                                                                                                                                                                                              
  8.000000E+02  1.250000E+02 -5.225000E+03  1.161514E-06 -1.665682E-08  7.028101E-09 -1.161373E-06  6.713135E-09 -9.680496E-11  4.084575E-11 -6.712313E-09  0.000000E+00  0.000000E+00  0.000000E+00  0.000000E+00  0.000000E+00  0.000000E+00  0.000000E+00  0.000000E+00  1.168359E+00 -1.734277E-02  7.317520E-03 -1.168207E+00                                                                                                                                                                                                                                                                                                                                                                                                                                                                                              
  9.350000E+02  1.250000E+02 -5.225000E+03  1.170987E-06 -1.785416E-08  5.162672E-09 -1.170839E-06  6.767656E-09 -1.037616E-10  3.000389E-11 -6.766794E-09  0.000000E+00  0.000000E+00  0.000000E+00  0.000000E+00  0.000000E+00  0.000000E+00  0.000000E+00  0.000000E+00  1.177867E+00 -1.858946E-02  5.375280E-03 -1.177708E+00                                                                                                                                                                                                                                                                                                                                                                                                                                                                                              
  1.185000E+03  1.250000E+02 -5.225000E+03  1.181753E-06 -1.427033E-08  2.407119E-09 -1.181665E-06  6.829607E-09 -8.293235E-11  1.398908E-11 -6.829089E-09  0.000000E+00  0.000000E+00  0.000000E+00  0.000000E+00  0.000000E+00  0.000000E+00  0.000000E+00  0.000000E+00  1.188703E+00 -1.485807E-02  2.506258E-03 -1.188608E+00                                                                                                                                                                                                                                                                                                                                                                                                                                                                                              
  1.435000E+03  1.250000E+02 -5.225000E+03  1.185326E-06 -5.015905E-09  1.239283E-09 -1.185315E-06  6.850143E-09 -2.914977E-11  7.202045E-12 -6.850077E-09  0.000000E+00  0.000000E+00  0.000000E+00  0.000000E+00  0.000000E+00  0.000000E+00  0.000000E+00  0.000000E+00  1.192306E+00 -5.222499E-03  1.290326E-03 -1.192294E+00                                                                                                                                                                                                                                                                                                                                                                                                                                                                                              
  1.250000E+02  1.250000E+02 -4.975000E+03  2.332835E-06  1.365357E-08  5.855868E-09 -2.332788E-06  1.328394E-08  7.809343E-11  3.349335E-11 -1.328367E-08  0.000000E+00  0.000000E+00  0.000000E+00  0.000000E+00  0.000000E+00  0.000000E+00  0.000000E+00  0.000000E+00  2.246826E+00  1.355834E-02  5.815026E-03 -2.246778E+00                                                                                                                                                                                                                                                                                                                                                                                                                                                                                              
  3.750000E+02  1.250000E+02 -4.975000E+03  2.316697E-06  3.462408E-08  1.414557E-08 -2.316395E-06  1.319257E-08  1.980420E-10  8.091068E-11 -1.319083E-08  0.000000E+00  0.000000E+00  0.000000E+00  0.000000E+00  0.000000E+00  0.000000E+00  0.000000E+00  0.000000E+00  2.231175E+00  3.438246E-02  1.404683E-02 -2.230866E+00                                                                                                                                                                                                                                                                                                                                                                                                                                                                                              
  6.250000E+02  1.250000E+02 -4.975000E+03  2.255774E-06  3.834444E-09  3.221138E-08 -2.255540E-06  1.284761E-08  2.192953E-11  1.842567E-10 -1.284627E-08  0.000000E+00  0.000000E+00  0.000000E+00  0.000000E+00  0.000000E+00  0.000000E+00  0.000000E+00  0.000000E+00  2.172129E+00  3.807745E-03  3.198628E-02 -2.171891E+00                                                                                                                                                                                                                                                                                                                                                                                                                                                                                              
  7.600000E+02  1.250000E+02 -4.975000E+03  2.275736E-06 -3.624008E-08  2.533962E-08 -2.275306E-06  1.296051E-08 -2.072941E-10  1.449445E-10 -1.295804E-08  0.000000E+00  0.000000E+00  0.000000E+00  0.000000E+00  0.000000E+00  0.000000E+00  0.000000E+00  0.000000E+00  2.191313E+00 -3.598696E-02  2.516263E-02 -2.190873E+00                                                                                                                                                                                                                                                                                                                                                                                                                                                                                              
  7.800000E+02  1.250000E+02 -4.975000E+03  2.279585E-06 -3.995402E-08  2.417737E-08 -2.279107E-06  1.298229E-08 -2.285367E-10  1.382957E-10 -1.297954E-08  0.000000E+00  0.000000E+00  0.000000E+00  0.000000E+00  0.000000E+00  0.000000E+00  0.000000E+00  0.000000E+00  2.195031E+00 -3.967500E-02  2.400851E-02 -2.194541E+00                                                                                                                                                                                                                                                                                                                                                                                                                                                                                              
  8.000000E+02  1.250000E+02 -4.975000E+03  2.284611E-06 -4.313367E-08  2.288475E-08 -2.284089E-06  1.301103E-08 -2.467197E-10  1.309011E-10 -1.300803E-08  0.000000E+00  0.000000E+00  0.000000E+00  0.000000E+00  0.000000E+00  0.000000E+00  0.000000E+00  0.000000E+00  2.200285E+00 -4.283256E-02  2.272494E-02 -2.199750E+00                                                                                                                                                                                                                                                                                                                                                                                                                                                                                              
  9.350000E+02  1.250000E+02 -4.975000E+03  2.315611E-06 -3.920631E-08  1.338711E-08 -2.315241E-06  1.318636E-08 -2.242477E-10  7.657160E-11 -1.318424E-08  0.000000E+00  0.000000E+00  0.000000E+00  0.000000E+00  0.000000E+00  0.000000E+00  0.000000E+00  0.000000E+00  2.230175E+00 -3.893282E-02  1.329368E-02 -2.229795E+00                                                                                                                                                                                                                                                                                                                                                                                                                                                                                              
  1.185000E+03  1.250000E+02 -4.975000E+03  2.330726E-06 -2.428263E-08  4.426512E-09 -2.330595E-06  1.327187E-08 -1.388843E-10  2.531749E-11 -1.327112E-08  0.000000E+00  0.000000E+00  0.000000E+00  0.000000E+00  0.000000E+00  0.000000E+00  0.000000E+00  0.000000E+00  2.244866E+00 -2.411338E-02  4.395655E-03 -2.244733E+00                                                                                                                                                                                                                                                                                                                                                                                                                                                                                              
  1.435000E+03  1.250000E+02 -4.975000E+03  2.332782E-06 -7.359986E-09  1.691423E-09 -2.332770E-06  1.328347E-08 -4.209470E-11  9.673906E-12 -1.328340E-08  0.000000E+00  0.000000E+00  0.000000E+00  0.000000E+00  0.000000E+00  0.000000E+00  0.000000E+00  0.000000E+00  2.246929E+00 -7.308708E-03  1.679638E-03 -2.246916E+00                                                                                                                                                                                                                                                                                                                                                                                                                                                                                              
  1.250000E+02  1.250000E+02 -4.725000E+03  3.542879E-06  2.197320E-08  7.299456E-09 -3.542803E-06  1.988415E-08  1.235389E-10  4.103932E-11 -1.988373E-08  0.000000E+00  0.000000E+00  0.000000E+00  0.000000E+00  0.000000E+00  0.000000E+00  0.000000E+00  0.000000E+00  3.281599E+00  2.077522E-02  6.901489E-03 -3.281526E+00                                                                                                                                                                                                                                                                                                                                                                                                                                                                                              
  3.750000E+02  1.250000E+02 -4.725000E+03  3.570394E-06  8.825826E-08  3.250761E-08 -3.569155E-06  2.002931E-08  4.962125E-10  1.827748E-10 -2.002233E-08  0.000000E+00  0.000000E+00  0.000000E+00  0.000000E+00  0.000000E+00  0.000000E+00  0.000000E+00  0.000000E+00  3.294915E+00  8.344458E-02  3.073439E-02 -3.293715E+00                                                                                                                                                                                                                                                                                                                                                                                                                                                                                              
  6.250000E+02  1.250000E+02 -4.725000E+03  3.438539E-06  2.338848E-08  1.366471E-07 -3.435744E-06  1.912111E-08  1.314844E-10  7.682389E-10 -1.910522E-08  0.000000E+00  0.000000E+00  0.000000E+00  0.000000E+00  0.000000E+00  0.000000E+00  0.000000E+00  0.000000E+00  2.921207E+00  2.213396E-02  1.291227E-01 -2.918268E+00                                                                                                                                                                                                                                                                                                                                                                                                                                                                                              
  7.600000E+02  1.250000E+02 -4.725000E+03  3.405871E-06 -9.716964E-08  1.048265E-07 -3.402871E-06  1.893857E-08 -5.463392E-10  5.893136E-10 -1.892151E-08  0.000000E+00  0.000000E+00  0.000000E+00  0.000000E+00  0.000000E+00  0.000000E+00  0.000000E+00  0.000000E+00  2.890177E+00 -9.182227E-02  9.905646E-02 -2.887019E+00                                                                                                                                                                                                                                                                                                                                                                                                                                                                                              
  7.800000E+02  1.250000E+02 -4.725000E+03  3.394560E-06 -1.209366E-07  9.875337E-08 -3.390967E-06  1.887219E-08 -6.799762E-10  5.551791E-10 -1.885176E-08  0.000000E+00  0.000000E+00  0.000000E+00  0.000000E+00  0.000000E+00  0.000000E+00  0.000000E+00  0.000000E+00  2.874415E+00 -1.143034E-01  9.331980E-02 -2.870625E+00                                                                                                                                                                                                                                                                                                                                                                                                                                                                                              
  8.000000E+02  1.250000E+02 -4.725000E+03  3.551711E-06 -1.322012E-07  9.167020E-08 -3.548066E-06  1.986501E-08 -7.433105E-10  5.153885E-10 -1.984440E-08  0.000000E+00  0.000000E+00  0.000000E+00  0.000000E+00  0.000000E+00  0.000000E+00  0.000000E+00  0.000000E+00  3.193485E+00 -1.249795E-01  8.665516E-02 -3.189861E+00                                                                                                                                                                                                                                                                                                                                                                                                                                                                                              
  9.350000E+02  1.250000E+02 -4.725000E+03  3.564845E-06 -8.946486E-08  3.256305E-08 -3.563574E-06  1.999787E-08 -5.030073E-10  1.830861E-10 -1.999071E-08  0.000000E+00  0.000000E+00  0.000000E+00  0.000000E+00  0.000000E+00  0.000000E+00  0.000000E+00  0.000000E+00  3.289385E+00 -8.458570E-02  3.078692E-02 -3.288153E+00                                                                                                                                                                                                                                                                                                                                                                                                                                                                                              
  1.185000E+03  1.250000E+02 -4.725000E+03  3.532633E-06 -3.076857E-08  6.068047E-09 -3.532494E-06  1.982666E-08 -1.729861E-10  3.411565E-11 -1.982587E-08  0.000000E+00  0.000000E+00  0.000000E+00  0.000000E+00  0.000000E+00  0.000000E+00  0.000000E+00  0.000000E+00  3.272154E+00 -2.909117E-02  5.737231E-03 -3.272019E+00                                                                                                                                                                                                                                                                                                                                                                                                                                                                                              