Title="TOUGHREACT V3.30-OMP flowvector.tec: Liq & Gas Fluxes (kg/s/m^2), Pore Velocities (m/s), & Heat Fluxes (J/s/m2)"                                                                                                                                                                                                                                                                                                                                                                                                                                                                                                                                                                                                                                                                                                         
Variables= "X(m)"     "Y(m)"      "Z(m)"     "FluxLiq"   "FluxLiq_X"   "FluxLiq_Y"   "FluxLiq_Z"   "PorVelLiq"  "PorVelLiqX"  "PorVelLiqY"  "PorVelLiqZ"     "FluxGas"   "FluxGas_X"   "FluxGas_Y"   "FluxGas_Z"   "PorVelGas"  "PorVelGasX"  "PorVelGasY"  "PorVelGasZ"    "HeatFlux"  "HeatFlux_X"  "HeatFlux_Y"  "HeatFlux_Z"                                                                                                                                                                                                                                                                                                                                                                                                                                                                                                
Zone T= "5.18400000E+05 sec" I=     9 J=    10 K=    23 F=Point
  1.250000E+02  1.250000E+02 -5.425000E+03  4.867736E-07  3.168362E-17 -1.935520E-18  4.867736E-07  2.855549E-09  1.868099E-19 -1.141203E-20  2.855549E-09  0.000000E+00  0.000000E+00  0.000000E+00  0.000000E+00  0.000000E+00  0.000000E+00  0.000000E+00  0.000000E+00  5.255649E-01  3.420851E-11 -2.089763E-12  5.255649E-01                                                                                                                                                                                                                                                                                                                                                                                                                                                                                              
  3.750000E+02  1.250000E+02 -5.425000E+03  4.867736E-07  8.211234E-17 -1.265452E-17  4.867736E-07  2.855549E-09  4.841428E-19 -7.461232E-20  2.855549E-09  0.000000E+00  0.000000E+00  0.000000E+00  0.000000E+00  0.000000E+00  0.000000E+00  0.000000E+00  0.000000E+00  5.255649E-01  8.865592E-11 -1.366296E-11  5.255649E-01                                                                                                                                                                                                                                                                                                                                                                                                                                                                                              
  6.250000E+02  1.250000E+02 -5.425000E+03  4.867736E-07  2.125207E-16 -3.855262E-17  4.867736E-07  2.855549E-09  1.253044E-18 -2.273102E-19  2.855549E-09  0.000000E+00  0.000000E+00  0.000000E+00  0.000000E+00  0.000000E+00  0.000000E+00  0.000000E+00  0.000000E+00  5.255649E-01  2.294566E-10 -4.162490E-11  5.255649E-01                                                                                                                                                                                                                                                                                                                                                                                                                                                                                              
  7.600000E+02  1.250000E+02 -5.425000E+03  4.867736E-07 -7.896264E-16  2.986381E-16  4.867736E-07  2.855549E-09 -4.655718E-18  1.760801E-18  2.855549E-09  0.000000E+00  0.000000E+00  0.000000E+00  0.000000E+00  0.000000E+00  0.000000E+00  0.000000E+00  0.000000E+00  5.255649E-01 -8.525522E-10  3.224368E-10  5.255649E-01                                                                                                                                                                                                                                                                                                                                                                                                                                                                                              
  7.800000E+02  1.250000E+02 -5.425000E+03  4.867736E-07  3.418718E-18  3.877878E-16  4.867736E-07  2.855549E-09  2.015711E-20  2.286437E-18  2.855549E-09  0.000000E+00  0.000000E+00  0.000000E+00  0.000000E+00  0.000000E+00  0.000000E+00  0.000000E+00  0.000000E+00  5.255649E-01  3.691157E-12  4.186908E-10  5.255649E-01                                                                                                                                                                                                                                                                                                                                                                                                                                                                                              
  8.000000E+02  1.250000E+02 -5.425000E+03  4.867736E-07  6.758347E-16  3.538846E-16  4.867736E-07  2.855549E-09  3.984791E-18  2.086540E-18  2.855549E-09  0.000000E+00  0.000000E+00  0.000000E+00  0.000000E+00  0.000000E+00  0.000000E+00  0.000000E+00  0.000000E+00  5.255649E-01  7.296924E-10  3.820859E-10  5.255649E-01                                                                                                                                                                                                                                                                                                                                                                                                                                                                                              
  9.350000E+02  1.250000E+02 -5.425000E+03  4.867736E-07 -2.762414E-16  3.017939E-17  4.867736E-07  2.855549E-09 -1.628747E-18  1.779408E-19  2.855549E-09  0.000000E+00  0.000000E+00  0.000000E+00  0.000000E+00  0.000000E+00  0.000000E+00  0.000000E+00  0.000000E+00  5.255649E-01 -2.982552E-10  3.258440E-11  5.255649E-01                                                                                                                                                                                                                                                                                                                                                                                                                                                                                              
  1.185000E+03  1.250000E+02 -5.425000E+03  4.867736E-07 -2.270029E-17 -2.013362E-17  4.867736E-07  2.855549E-09 -1.338432E-19 -1.187099E-19  2.855549E-09  0.000000E+00  0.000000E+00  0.000000E+00  0.000000E+00  0.000000E+00  0.000000E+00  0.000000E+00  0.000000E+00  5.255649E-01 -2.450928E-11 -2.173808E-11  5.255649E-01                                                                                                                                                                                                                                                                                                                                                                                                                                                                                              
  1.435000E+03  1.250000E+02 -5.425000E+03  4.867736E-07 -2.576135E-17 -9.930060E-18  4.867736E-07  2.855549E-09 -1.518916E-19 -5.854865E-20  2.855549E-09  0.000000E+00  0.000000E+00  0.000000E+00  0.000000E+00  0.000000E+00  0.000000E+00  0.000000E+00  0.000000E+00  5.255649E-01 -2.781429E-11 -1.072139E-11  5.255649E-01                                                                                                                                                                                                                                                                                                                                                                                                                                                                                              
  1.250000E+02  1.250000E+02 -5.225000E+03  9.414944E-07  1.009029E-17 -1.978813E-17  9.414944E-07  5.493425E-09  5.889385E-20 -1.154971E-19  5.493425E-09  0.000000E+00  0.000000E+00  0.000000E+00  0.000000E+00  0.000000E+00  0.000000E+00  0.000000E+00  0.000000E+00  9.987151E-01  1.049924E-11 -2.059012E-11  9.987151E-01                                                                                                                                                                                                                                                                                                                                                                                                                                                                                              
  3.750000E+02  1.250000E+02 -5.225000E+03  9.414944E-07  1.756764E-17 -4.800376E-17  9.414944E-07  5.493425E-09  1.025368E-19 -2.801828E-19  5.493425E-09  0.000000E+00  0.000000E+00  0.000000E+00  0.000000E+00  0.000000E+00  0.000000E+00  0.000000E+00  0.000000E+00  9.987151E-01  1.827965E-11 -4.994932E-11  9.987151E-01                                                                                                                                                                                                                                                                                                                                                                                                                                                                                              
  6.250000E+02  1.250000E+02 -5.225000E+03  9.414944E-07 -1.918376E-17 -6.315469E-17  9.414944E-07  5.493425E-09 -1.119695E-19 -3.686140E-19  5.493425E-09  0.000000E+00  0.000000E+00  0.000000E+00  0.000000E+00  0.000000E+00  0.000000E+00  0.000000E+00  0.000000E+00  9.987151E-01 -1.996126E-11 -6.571431E-11  9.987151E-01                                                                                                                                                                                                                                                                                                                                                                                                                                                                                              
  7.600000E+02  1.250000E+02 -5.225000E+03  9.414944E-07 -1.516279E-16  7.962758E-18  9.414944E-07  5.493425E-09 -8.850041E-19  4.647611E-20  5.493425E-09  0.000000E+00  0.000000E+00  0.000000E+00  0.000000E+00  0.000000E+00  0.000000E+00  0.000000E+00  0.000000E+00  9.987151E-01 -1.577732E-10  8.285483E-12  9.987151E-01                                                                                                                                                                                                                                                                                                                                                                                                                                                                                              
  7.800000E+02  1.250000E+02 -5.225000E+03  9.414944E-07 -9.350561E-16  5.429341E-17  9.414944E-07  5.493425E-09 -5.457628E-18  3.168935E-19  5.493425E-09  0.000000E+00  0.000000E+00  0.000000E+00  0.000000E+00  0.000000E+00  0.000000E+00  0.000000E+00  0.000000E+00  9.987151E-01 -9.729533E-10  5.649389E-11  9.987151E-01                                                                                                                                                                                                                                                                                                                                                                                                                                                                                              
  8.000000E+02  1.250000E+02 -5.225000E+03  9.414944E-07 -6.401582E-16  1.204638E-16  9.414944E-07  5.493425E-09 -3.736402E-18  7.031094E-19  5.493425E-09  0.000000E+00  0.000000E+00  0.000000E+00  0.000000E+00  0.000000E+00  0.000000E+00  0.000000E+00  0.000000E+00  9.987151E-01 -6.661034E-10  1.253461E-10  9.987151E-01                                                                                                                                                                                                                                                                                                                                                                                                                                                                                              
  9.350000E+02  1.250000E+02 -5.225000E+03  9.414944E-07  1.482013E-16  1.694797E-17  9.414944E-07  5.493425E-09  8.650045E-19  9.891997E-20  5.493425E-09  0.000000E+00  0.000000E+00  0.000000E+00  0.000000E+00  0.000000E+00  0.000000E+00  0.000000E+00  0.000000E+00  9.987151E-01  1.542078E-10  1.763486E-11  9.987151E-01                                                                                                                                                                                                                                                                                                                                                                                                                                                                                              
  1.185000E+03  1.250000E+02 -5.225000E+03  9.414944E-07 -1.797043E-17  1.655551E-17  9.414944E-07  5.493425E-09 -1.048877E-19  9.662932E-20  5.493425E-09  0.000000E+00  0.000000E+00  0.000000E+00  0.000000E+00  0.000000E+00  0.000000E+00  0.000000E+00  0.000000E+00  9.987151E-01 -1.869876E-11  1.722650E-11  9.987151E-01                                                                                                                                                                                                                                                                                                                                                                                                                                                                                              
  1.435000E+03  1.250000E+02 -5.225000E+03  9.414944E-07  3.759331E-18  5.484079E-18  9.414944E-07  5.493425E-09  2.194203E-20  3.200884E-20  5.493425E-09  0.000000E+00  0.000000E+00  0.000000E+00  0.000000E+00  0.000000E+00  0.000000E+00  0.000000E+00  0.000000E+00  9.987151E-01  3.911694E-12  5.706345E-12  9.987151E-01                                                                                                                                                                                                                                                                                                                                                                                                                                                                                              
  1.250000E+02  1.250000E+02 -4.975000E+03  8.708641E-07  1.018230E-15 -3.798838E-16  8.708641E-07  5.023275E-09  5.871034E-18 -2.190380E-18  5.023275E-09  0.000000E+00  0.000000E+00  0.000000E+00  0.000000E+00  0.000000E+00  0.000000E+00  0.000000E+00  0.000000E+00  8.858736E-01  1.009861E-09 -3.767617E-10  8.858736E-01                                                                                                                                                                                                                                                                                                                                                                                                                                                                                              
  3.750000E+02  1.250000E+02 -4.975000E+03  8.708643E-07  3.046658E-15 -7.067708E-16  8.708643E-07  5.023276E-09  1.756680E-17 -4.075186E-18  5.023276E-09  0.000000E+00  0.000000E+00  0.000000E+00  0.000000E+00  0.000000E+00  0.000000E+00  0.000000E+00  0.000000E+00  8.858737E-01  3.021619E-09 -7.009622E-10  8.858737E-01                                                                                                                                                                                                                                                                                                                                                                                                                                                                                              
  6.250000E+02  1.250000E+02 -4.975000E+03  8.708646E-07  5.375417E-15 -1.148156E-14  8.708646E-07  5.023278E-09  3.099424E-17 -6.620181E-17  5.023278E-09  0.000000E+00  0.000000E+00  0.000000E+00  0.000000E+00  0.000000E+00  0.000000E+00  0.000000E+00  0.000000E+00  8.858741E-01  5.331240E-09 -1.138720E-08  8.858741E-01                                                                                                                                                                                                                                                                                                                                                                                                                                                                                              
  7.600000E+02  1.250000E+02 -4.975000E+03  8.708650E-07  5.266435E-15 -1.799554E-15  8.708650E-07  5.023280E-09  3.036586E-17 -1.037609E-17  5.023280E-09  0.000000E+00  0.000000E+00  0.000000E+00  0.000000E+00  0.000000E+00  0.000000E+00  0.000000E+00  0.000000E+00  8.858744E-01  5.223153E-09 -1.784765E-09  8.858744E-01                                                                                                                                                                                                                                                                                                                                                                                                                                                                                              
  7.800000E+02  1.250000E+02 -4.975000E+03  8.708650E-07  1.480029E-15 -1.093659E-15  8.708650E-07  5.023280E-09  8.533733E-18 -6.305954E-18  5.023280E-09  0.000000E+00  0.000000E+00  0.000000E+00  0.000000E+00  0.000000E+00  0.000000E+00  0.000000E+00  0.000000E+00  8.858745E-01  1.467865E-09 -1.084671E-09  8.858745E-01                                                                                                                                                                                                                                                                                                                                                                                                                                                                                              
  8.000000E+02  1.250000E+02 -4.975000E+03  8.708650E-07 -2.727921E-15 -7.936830E-16  8.708650E-07  5.023280E-09 -1.572898E-17 -4.576315E-18  5.023280E-09  0.000000E+00  0.000000E+00  0.000000E+00  0.000000E+00  0.000000E+00  0.000000E+00  0.000000E+00  0.000000E+00  8.858745E-01 -2.705502E-09 -7.871602E-10  8.858745E-01                                                                                                                                                                                                                                                                                                                                                                                                                                                                                              
  9.350000E+02  1.250000E+02 -4.975000E+03  8.708648E-07 -4.037688E-15 -3.328147E-16  8.708648E-07  5.023279E-09 -2.328100E-17 -1.918984E-18  5.023279E-09  0.000000E+00  0.000000E+00  0.000000E+00  0.000000E+00  0.000000E+00  0.000000E+00  0.000000E+00  0.000000E+00  8.858742E-01 -4.004505E-09 -3.300795E-10  8.858742E-01                                                                                                                                                                                                                                                                                                                                                                                                                                                                                              
  1.185000E+03  1.250000E+02 -4.975000E+03  8.708645E-07 -2.359885E-15 -1.225587E-16  8.708645E-07  5.023277E-09 -1.360691E-17 -7.066642E-19  5.023277E-09  0.000000E+00  0.000000E+00  0.000000E+00  0.000000E+00  0.000000E+00  0.000000E+00  0.000000E+00  0.000000E+00  8.858740E-01 -2.340490E-09 -1.215515E-10  8.858740E-01                                                                                                                                                                                                                                                                                                                                                                                                                                                                                              
  1.435000E+03  1.250000E+02 -4.975000E+03  8.708644E-07 -6.107003E-16 -2.165560E-16  8.708644E-07  5.023277E-09 -3.521251E-18 -1.248645E-18  5.023277E-09  0.000000E+00  0.000000E+00  0.000000E+00  0.000000E+00  0.000000E+00  0.000000E+00  0.000000E+00  0.000000E+00  8.858738E-01 -6.056813E-10 -2.147762E-10  8.858738E-01                                                                                                                                                                                                                                                                                                                                                                                                                                                                                              
  1.250000E+02  1.250000E+02 -4.725000E+03  1.934037E-06  1.543243E-13 -4.661364E-14  1.934037E-06  1.100248E-08  8.794716E-16 -2.656443E-16  1.100248E-08  0.000000E+00  0.000000E+00  0.000000E+00  0.000000E+00  0.000000E+00  0.000000E+00  0.000000E+00  0.000000E+00  1.844465E+00  1.455652E-07 -4.396796E-08  1.844465E+00                                                                                                                                                                                                                                                                                                                                                                                                                                                                                              
  3.750000E+02  1.250000E+02 -4.725000E+03  1.934049E-06  4.921995E-13 -9.486051E-14  1.934049E-06  1.100255E-08  2.804973E-15 -5.405961E-16  1.100255E-08  0.000000E+00  0.000000E+00  0.000000E+00  0.000000E+00  0.000000E+00  0.000000E+00  0.000000E+00  0.000000E+00  1.844477E+00  4.642635E-07 -8.947645E-08  1.844477E+00                                                                                                                                                                                                                                                                                                                                                                                                                                                                                              
  6.250000E+02  1.250000E+02 -4.725000E+03  1.934078E-06  9.867800E-13 -2.594700E-12  1.934078E-06  1.100271E-08  5.623514E-15 -1.478682E-14  1.100271E-08  0.000000E+00  0.000000E+00  0.000000E+00  0.000000E+00  0.000000E+00  0.000000E+00  0.000000E+00  0.000000E+00  1.844504E+00  9.307727E-07 -2.447431E-06  1.844504E+00                                                                                                                                                                                                                                                                                                                                                                                                                                                                                              
  7.600000E+02  1.250000E+02 -4.725000E+03  1.934112E-06  9.515439E-13 -3.206930E-13  1.934112E-06  1.100291E-08  5.422709E-15 -1.827582E-15  1.100291E-08  0.000000E+00  0.000000E+00  0.000000E+00  0.000000E+00  0.000000E+00  0.000000E+00  0.000000E+00  0.000000E+00  1.844536E+00  8.975366E-07 -3.024912E-07  1.844536E+00                                                                                                                                                                                                                                                                                                                                                                                                                                                                                              
  7.800000E+02  1.250000E+02 -4.725000E+03  1.934115E-06  2.534681E-13 -1.845947E-13  1.934115E-06  1.100292E-08  1.444477E-15 -1.051978E-15  1.100292E-08  0.000000E+00  0.000000E+00  0.000000E+00  0.000000E+00  0.000000E+00  0.000000E+00  0.000000E+00  0.000000E+00  1.844538E+00  2.390819E-07 -1.741176E-07  1.844538E+00                                                                                                                                                                                                                                                                                                                                                                                                                                                                                              
  8.000000E+02  1.250000E+02 -4.725000E+03  1.934115E-06 -4.417094E-13 -1.394374E-13  1.934115E-06  1.100292E-08 -2.517237E-15 -7.946332E-16  1.100292E-08  0.000000E+00  0.000000E+00  0.000000E+00  0.000000E+00  0.000000E+00  0.000000E+00  0.000000E+00  0.000000E+00  1.844538E+00 -4.166390E-07 -1.315233E-07  1.844538E+00                                                                                                                                                                                                                                                                                                                                                                                                                                                                                              
  9.350000E+02  1.250000E+02 -4.725000E+03  1.934097E-06 -6.571257E-13 -6.456753E-14  1.934097E-06  1.100282E-08 -3.744862E-15 -3.679609E-16  1.100282E-08  0.000000E+00  0.000000E+00  0.000000E+00  0.000000E+00  0.000000E+00  0.000000E+00  0.000000E+00  0.000000E+00  1.844522E+00 -6.198288E-07 -6.090283E-08  1.844522E+00                                                                                                                                                                                                                                                                                                                                                                                                                                                                                              
  1.185000E+03  1.250000E+02 -4.725000E+03  1.934079E-06 -3.914075E-13 -2.958434E-14  1.934079E-06  1.100272E-08 -2.230574E-15 -1.685968E-16  1.100272E-08  0.000000E+00  0.000000E+00  0.000000E+00  0.000000E+00  0.000000E+00  0.000000E+00  0.000000E+00  0.000000E+00  1.844504E+00 -3.691922E-07 -2.790520E-08  1.844504E+00                                                                                                                                                                                                                                                                                                                                                                                                                                                                                              