Title="TOUGHREACT V3.30-OMP flowvector.tec: Liq & Gas Fluxes (kg/s/m^2), Pore Velocities (m/s), & Heat Fluxes (J/s/m2)"                                                                                                                                                                                                                                                                                                                                                                                                                                                                                                                                                                                                                                                                                                         
Variables= "X(m)"     "Y(m)"      "Z(m)"     "FluxLiq"   "FluxLiq_X"   "FluxLiq_Y"   "FluxLiq_Z"   "PorVelLiq"  "PorVelLiqX"  "PorVelLiqY"  "PorVelLiqZ"     "FluxGas"   "FluxGas_X"   "FluxGas_Y"   "FluxGas_Z"   "PorVelGas"  "PorVelGasX"  "PorVelGasY"  "PorVelGasZ"    "HeatFlux"  "HeatFlux_X"  "HeatFlux_Y"  "HeatFlux_Z"                                                                                                                                                                                                                                                                                                                                                                                                                                                                                                
Zone T= "1.00000000E+06 sec" I=     9 J=    10 K=    23 F=Point
  1.250000E+02  1.250000E+02 -5.425000E+03  4.784949E-07 -8.903435E-17 -6.431638E-16  4.784949E-07  2.807028E-09 -5.249649E-19 -3.792227E-18  2.807028E-09  0.000000E+00  0.000000E+00  0.000000E+00  0.000000E+00  0.000000E+00  0.000000E+00  0.000000E+00  0.000000E+00  5.166252E-01 -9.612933E-11 -6.944163E-10  5.166252E-01                                                                                                                                                                                                                                                                                                                                                                                                                                                                                              
  3.750000E+02  1.250000E+02 -5.425000E+03  4.784949E-07  1.948468E-16 -1.810982E-16  4.784949E-07  2.807028E-09  1.148857E-18 -1.067793E-18  2.807028E-09  0.000000E+00  0.000000E+00  0.000000E+00  0.000000E+00  0.000000E+00  0.000000E+00  0.000000E+00  0.000000E+00  5.166252E-01  2.103738E-10 -1.955296E-10  5.166252E-01                                                                                                                                                                                                                                                                                                                                                                                                                                                                                              
  6.250000E+02  1.250000E+02 -5.425000E+03  4.784949E-07 -1.209044E-15 -9.092780E-16  4.784949E-07  2.807028E-09 -7.128773E-18 -5.361291E-18  2.807028E-09  0.000000E+00  0.000000E+00  0.000000E+00  0.000000E+00  0.000000E+00  0.000000E+00  0.000000E+00  0.000000E+00  5.166252E-01 -1.305390E-09 -9.817366E-10  5.166252E-01                                                                                                                                                                                                                                                                                                                                                                                                                                                                                              
  7.600000E+02  1.250000E+02 -5.425000E+03  4.784949E-07  2.548807E-15  8.181819E-17  4.784949E-07  2.807028E-09  1.502830E-17  4.824170E-19  2.807028E-09  0.000000E+00  0.000000E+00  0.000000E+00  0.000000E+00  0.000000E+00  0.000000E+00  0.000000E+00  0.000000E+00  5.166252E-01  2.751917E-09  8.833813E-11  5.166252E-01                                                                                                                                                                                                                                                                                                                                                                                                                                                                                              
  7.800000E+02  1.250000E+02 -5.425000E+03  4.784949E-07  3.930229E-16  1.988441E-16  4.784949E-07  2.807028E-09  2.317344E-18  1.172426E-18  2.807028E-09  0.000000E+00  0.000000E+00  0.000000E+00  0.000000E+00  0.000000E+00  0.000000E+00  0.000000E+00  0.000000E+00  5.166252E-01  4.243421E-10  2.146896E-10  5.166252E-01                                                                                                                                                                                                                                                                                                                                                                                                                                                                                              
  8.000000E+02  1.250000E+02 -5.425000E+03  4.784949E-07 -2.878238E-15  2.546694E-16  4.784949E-07  2.807028E-09 -1.697069E-17  1.501583E-18  2.807028E-09  0.000000E+00  0.000000E+00  0.000000E+00  0.000000E+00  0.000000E+00  0.000000E+00  0.000000E+00  0.000000E+00  5.166252E-01 -3.107599E-09  2.749635E-10  5.166252E-01                                                                                                                                                                                                                                                                                                                                                                                                                                                                                              
  9.350000E+02  1.250000E+02 -5.425000E+03  4.784949E-07  9.618155E-16 -2.554478E-16  4.784949E-07  2.807028E-09  5.671063E-18 -1.506173E-18  2.807028E-09  0.000000E+00  0.000000E+00  0.000000E+00  0.000000E+00  0.000000E+00  0.000000E+00  0.000000E+00  0.000000E+00  5.166252E-01  1.038461E-09 -2.758039E-10  5.166252E-01                                                                                                                                                                                                                                                                                                                                                                                                                                                                                              
  1.185000E+03  1.250000E+02 -5.425000E+03  4.784949E-07 -5.670259E-16 -2.874787E-16  4.784949E-07  2.807028E-09 -3.343302E-18 -1.695034E-18  2.807028E-09  0.000000E+00  0.000000E+00  0.000000E+00  0.000000E+00  0.000000E+00  0.000000E+00  0.000000E+00  0.000000E+00  5.166252E-01 -6.122111E-10 -3.103873E-10  5.166252E-01                                                                                                                                                                                                                                                                                                                                                                                                                                                                                              
  1.435000E+03  1.250000E+02 -5.425000E+03  4.784949E-07 -7.583698E-16  2.662931E-16  4.784949E-07  2.807028E-09 -4.471505E-18  1.570119E-18  2.807028E-09  0.000000E+00  0.000000E+00  0.000000E+00  0.000000E+00  0.000000E+00  0.000000E+00  0.000000E+00  0.000000E+00  5.166252E-01 -8.188029E-10  2.875135E-10  5.166252E-01                                                                                                                                                                                                                                                                                                                                                                                                                                                                                              
  1.250000E+02  1.250000E+02 -5.225000E+03  9.331696E-07  5.752602E-18 -7.569267E-17  9.331696E-07  5.444635E-09  3.357610E-20 -4.417940E-19  5.444635E-09  0.000000E+00  0.000000E+00  0.000000E+00  0.000000E+00  0.000000E+00  0.000000E+00  0.000000E+00  0.000000E+00  9.897277E-01  5.985752E-12 -7.876046E-11  9.897277E-01                                                                                                                                                                                                                                                                                                                                                                                                                                                                                              
  3.750000E+02  1.250000E+02 -5.225000E+03  9.331696E-07 -5.532619E-17  1.936468E-17  9.331696E-07  5.444635E-09 -3.229213E-19  1.130255E-19  5.444635E-09  0.000000E+00  0.000000E+00  0.000000E+00  0.000000E+00  0.000000E+00  0.000000E+00  0.000000E+00  0.000000E+00  9.897277E-01 -5.756854E-11  2.014952E-11  9.897277E-01                                                                                                                                                                                                                                                                                                                                                                                                                                                                                              
  6.250000E+02  1.250000E+02 -5.225000E+03  9.331696E-07 -3.830019E-17 -4.121631E-16  9.331696E-07  5.444635E-09 -2.235460E-19 -2.405665E-18  5.444635E-09  0.000000E+00  0.000000E+00  0.000000E+00  0.000000E+00  0.000000E+00  0.000000E+00  0.000000E+00  0.000000E+00  9.897278E-01 -3.985248E-11 -4.288679E-10  9.897278E-01                                                                                                                                                                                                                                                                                                                                                                                                                                                                                              
  7.600000E+02  1.250000E+02 -5.225000E+03  9.331696E-07  6.168871E-16  2.629466E-17  9.331696E-07  5.444635E-09  3.600573E-18  1.534735E-19  5.444635E-09  0.000000E+00  0.000000E+00  0.000000E+00  0.000000E+00  0.000000E+00  0.000000E+00  0.000000E+00  0.000000E+00  9.897278E-01  6.418892E-10  2.736037E-11  9.897278E-01                                                                                                                                                                                                                                                                                                                                                                                                                                                                                              
  7.800000E+02  1.250000E+02 -5.225000E+03  9.331696E-07  2.113203E-15  8.861279E-18  9.331696E-07  5.444635E-09  1.233409E-17  5.172046E-20  5.444635E-09  0.000000E+00  0.000000E+00  0.000000E+00  0.000000E+00  0.000000E+00  0.000000E+00  0.000000E+00  0.000000E+00  9.897278E-01  2.198850E-09  9.220423E-12  9.897278E-01                                                                                                                                                                                                                                                                                                                                                                                                                                                                                              
  8.000000E+02  1.250000E+02 -5.225000E+03  9.331696E-07  1.315044E-15 -1.838354E-18  9.331696E-07  5.444635E-09  7.675491E-18 -1.072989E-20  5.444635E-09  0.000000E+00  0.000000E+00  0.000000E+00  0.000000E+00  0.000000E+00  0.000000E+00  0.000000E+00  0.000000E+00  9.897278E-01  1.368342E-09 -1.912862E-12  9.897278E-01                                                                                                                                                                                                                                                                                                                                                                                                                                                                                              
  9.350000E+02  1.250000E+02 -5.225000E+03  9.331696E-07 -2.447222E-16 -1.444864E-17  9.331696E-07  5.444635E-09 -1.428365E-18 -8.433208E-20  5.444635E-09  0.000000E+00  0.000000E+00  0.000000E+00  0.000000E+00  0.000000E+00  0.000000E+00  0.000000E+00  0.000000E+00  9.897278E-01 -2.546406E-10 -1.503423E-11  9.897278E-01                                                                                                                                                                                                                                                                                                                                                                                                                                                                                              
  1.185000E+03  1.250000E+02 -5.225000E+03  9.331696E-07  8.363477E-17 -3.010563E-17  9.331696E-07  5.444635E-09  4.881495E-19 -1.757170E-19  5.444635E-09  0.000000E+00  0.000000E+00  0.000000E+00  0.000000E+00  0.000000E+00  0.000000E+00  0.000000E+00  0.000000E+00  9.897278E-01  8.702445E-11 -3.132579E-11  9.897278E-01                                                                                                                                                                                                                                                                                                                                                                                                                                                                                              
  1.435000E+03  1.250000E+02 -5.225000E+03  9.331696E-07  1.243058E-16 -2.335329E-16  9.331696E-07  5.444635E-09  7.255332E-19 -1.363057E-18  5.444635E-09  0.000000E+00  0.000000E+00  0.000000E+00  0.000000E+00  0.000000E+00  0.000000E+00  0.000000E+00  0.000000E+00  9.897278E-01  1.293438E-10 -2.429979E-10  9.897278E-01                                                                                                                                                                                                                                                                                                                                                                                                                                                                                              
  1.250000E+02  1.250000E+02 -4.975000E+03  8.802508E-07  2.625291E-15 -1.077567E-15  8.802508E-07  5.077080E-09  1.513721E-17 -6.213162E-18  5.077080E-09  0.000000E+00  0.000000E+00  0.000000E+00  0.000000E+00  0.000000E+00  0.000000E+00  0.000000E+00  0.000000E+00  8.951811E-01  2.603716E-09 -1.068711E-09  8.951811E-01                                                                                                                                                                                                                                                                                                                                                                                                                                                                                              
  3.750000E+02  1.250000E+02 -4.975000E+03  8.802510E-07  7.553242E-15 -2.677211E-15  8.802510E-07  5.077082E-09  4.355138E-17 -1.543658E-17  5.077082E-09  0.000000E+00  0.000000E+00  0.000000E+00  0.000000E+00  0.000000E+00  0.000000E+00  0.000000E+00  0.000000E+00  8.951813E-01  7.491168E-09 -2.655209E-09  8.951813E-01                                                                                                                                                                                                                                                                                                                                                                                                                                                                                              
  6.250000E+02  1.250000E+02 -4.975000E+03  8.802515E-07  1.532386E-14 -6.288892E-14  8.802515E-07  5.077084E-09  8.835612E-17 -3.626124E-16  5.077084E-09  0.000000E+00  0.000000E+00  0.000000E+00  0.000000E+00  0.000000E+00  0.000000E+00  0.000000E+00  0.000000E+00  8.951818E-01  1.519792E-08 -6.237209E-08  8.951818E-01                                                                                                                                                                                                                                                                                                                                                                                                                                                                                              
  7.600000E+02  1.250000E+02 -4.975000E+03  8.802521E-07  1.659014E-14 -1.172948E-14  8.802521E-07  5.077088E-09  9.565739E-17 -6.763121E-17  5.077088E-09  0.000000E+00  0.000000E+00  0.000000E+00  0.000000E+00  0.000000E+00  0.000000E+00  0.000000E+00  0.000000E+00  8.951824E-01  1.645380E-08 -1.163308E-08  8.951824E-01                                                                                                                                                                                                                                                                                                                                                                                                                                                                                              
  7.800000E+02  1.250000E+02 -4.975000E+03  8.802521E-07  6.323302E-15 -7.192953E-15  8.802521E-07  5.077088E-09  3.645965E-17 -4.147398E-17  5.077088E-09  0.000000E+00  0.000000E+00  0.000000E+00  0.000000E+00  0.000000E+00  0.000000E+00  0.000000E+00  0.000000E+00  8.951824E-01  6.271336E-09 -7.133840E-09  8.951824E-01                                                                                                                                                                                                                                                                                                                                                                                                                                                                                              
  8.000000E+02  1.250000E+02 -4.975000E+03  8.802521E-07 -5.117767E-15 -5.024676E-15  8.802521E-07  5.077088E-09 -2.950863E-17 -2.897187E-17  5.077088E-09  0.000000E+00  0.000000E+00  0.000000E+00  0.000000E+00  0.000000E+00  0.000000E+00  0.000000E+00  0.000000E+00  8.951824E-01 -5.075709E-09 -4.983382E-09  8.951824E-01                                                                                                                                                                                                                                                                                                                                                                                                                                                                                              
  9.350000E+02  1.250000E+02 -4.975000E+03  8.802518E-07 -9.353803E-15 -1.153489E-15  8.802518E-07  5.077086E-09 -5.393327E-17 -6.650924E-18  5.077086E-09  0.000000E+00  0.000000E+00  0.000000E+00  0.000000E+00  0.000000E+00  0.000000E+00  0.000000E+00  0.000000E+00  8.951821E-01 -9.276932E-09 -1.144010E-09  8.951821E-01                                                                                                                                                                                                                                                                                                                                                                                                                                                                                              
  1.185000E+03  1.250000E+02 -4.975000E+03  8.802515E-07 -6.149825E-15 -8.030927E-16  8.802515E-07  5.077084E-09 -3.545939E-17 -4.630567E-18  5.077084E-09  0.000000E+00  0.000000E+00  0.000000E+00  0.000000E+00  0.000000E+00  0.000000E+00  0.000000E+00  0.000000E+00  8.951818E-01 -6.099285E-09 -7.964928E-10  8.951818E-01                                                                                                                                                                                                                                                                                                                                                                                                                                                                                              
  1.435000E+03  1.250000E+02 -4.975000E+03  8.802513E-07 -2.042860E-15 -3.851975E-16  8.802513E-07  5.077083E-09 -1.177896E-17 -2.221017E-18  5.077083E-09  0.000000E+00  0.000000E+00  0.000000E+00  0.000000E+00  0.000000E+00  0.000000E+00  0.000000E+00  0.000000E+00  8.951816E-01 -2.026071E-09 -3.820319E-10  8.951816E-01                                                                                                                                                                                                                                                                                                                                                                                                                                                                                              
  1.250000E+02  1.250000E+02 -4.725000E+03  2.058610E-06  2.137089E-13 -8.809428E-14  2.058610E-06  1.171057E-08  1.217926E-15 -5.020487E-16  1.171057E-08  0.000000E+00  0.000000E+00  0.000000E+00  0.000000E+00  0.000000E+00  0.000000E+00  0.000000E+00  0.000000E+00  1.962418E+00  2.015783E-07 -8.309385E-08  1.962418E+00                                                                                                                                                                                                                                                                                                                                                                                                                                                                                              
  3.750000E+02  1.250000E+02 -4.725000E+03  2.058618E-06  6.578293E-13 -2.165584E-13  2.058618E-06  1.171061E-08  3.748965E-15 -1.234165E-15  1.171061E-08  0.000000E+00  0.000000E+00  0.000000E+00  0.000000E+00  0.000000E+00  0.000000E+00  0.000000E+00  0.000000E+00  1.962425E+00  6.204894E-07 -2.042660E-07  1.962425E+00                                                                                                                                                                                                                                                                                                                                                                                                                                                                                              
  6.250000E+02  1.250000E+02 -4.725000E+03  2.058638E-06  1.474841E-12 -8.201380E-12  2.058638E-06  1.171072E-08  8.405107E-15 -4.673961E-14  1.171072E-08  0.000000E+00  0.000000E+00  0.000000E+00  0.000000E+00  0.000000E+00  0.000000E+00  0.000000E+00  0.000000E+00  1.962444E+00  1.391125E-06 -7.735851E-06  1.962444E+00                                                                                                                                                                                                                                                                                                                                                                                                                                                                                              
  7.600000E+02  1.250000E+02 -4.725000E+03  2.058666E-06  1.559539E-12 -1.129727E-12  2.058666E-06  1.171089E-08  8.887801E-15 -6.438307E-15  1.171089E-08  0.000000E+00  0.000000E+00  0.000000E+00  0.000000E+00  0.000000E+00  0.000000E+00  0.000000E+00  0.000000E+00  1.962471E+00  1.471016E-06 -1.065601E-06  1.962471E+00                                                                                                                                                                                                                                                                                                                                                                                                                                                                                              
  7.800000E+02  1.250000E+02 -4.725000E+03  2.058668E-06  5.412095E-13 -6.006455E-13  2.058668E-06  1.171090E-08  3.084350E-15 -3.423075E-15  1.171090E-08  0.000000E+00  0.000000E+00  0.000000E+00  0.000000E+00  0.000000E+00  0.000000E+00  0.000000E+00  0.000000E+00  1.962473E+00  5.104893E-07 -5.665515E-07  1.962473E+00                                                                                                                                                                                                                                                                                                                                                                                                                                                                                              
  8.000000E+02  1.250000E+02 -4.725000E+03  2.058669E-06 -4.602665E-13 -3.940673E-13  2.058669E-06  1.171090E-08 -2.623056E-15 -2.245787E-15  1.171090E-08  0.000000E+00  0.000000E+00  0.000000E+00  0.000000E+00  0.000000E+00  0.000000E+00  0.000000E+00  0.000000E+00  1.962473E+00 -4.341407E-07 -3.716991E-07  1.962473E+00                                                                                                                                                                                                                                                                                                                                                                                                                                                                                              
  9.350000E+02  1.250000E+02 -4.725000E+03  2.058657E-06 -8.183774E-13 -1.239385E-13  2.058657E-06  1.171084E-08 -4.663928E-15 -7.063249E-16  1.171084E-08  0.000000E+00  0.000000E+00  0.000000E+00  0.000000E+00  0.000000E+00  0.000000E+00  0.000000E+00  0.000000E+00  1.962463E+00 -7.719244E-07 -1.169035E-07  1.962463E+00                                                                                                                                                                                                                                                                                                                                                                                                                                                                                              
  1.185000E+03  1.250000E+02 -4.725000E+03  2.058647E-06 -5.092490E-13 -5.657815E-14  2.058647E-06  1.171078E-08 -2.902207E-15 -3.224385E-16  1.171078E-08  0.000000E+00  0.000000E+00  0.000000E+00  0.000000E+00  0.000000E+00  0.000000E+00  0.000000E+00  0.000000E+00  1.962453E+00 -4.803429E-07 -5.336665E-08  1.962453E+00                                                                                                                                                                                                                                                                                                                                                                                                                                                                                              