Title="TOUGHREACT V3.30-OMP: Aqueous Total & Species Concentrations in mol/kg h2o, Surface & Exchanged Species in mol/kg h2o, Dry blocks in mol/L medium"                                                                                                                                                                                                                                                                                                                                                                                                                                                                                                                                                                                                                                                                       
Variables= "X(m)"   "Y(m)"   "Z(m)"   "P(bar)"     "T(C)"   "SatGas"   "SatLiq"     "aH2O"       "pH"        "t_na+"        "t_cl-"      "t_hco3-"       "t_ca+2"      "t_so4-2"       "t_mg+2"       "t_ba+2"       "t_al+3"     "t_h4sio4"         "t_k+"                                                                                                                                                                                                                                                                                                                                                                                                                                                                                                                                                                     
Zone T= "2.00590045E+03 yr" I=      9J=     10K=     23F=Point 
     125.0000     125.0000   -5425.0000  5.47703E+02  259.919  0.00000E+00  1.00000E+00  1.00001  5.9980  1.0870E-10  1.0140E-10  1.7460E-02  2.6130E-04  9.7999E-11  2.6187E-05  9.8534E-11  3.5324E-04  3.6089E-04  1.0068E-10                                                                                                                                                                                                                                                                                                                                                                                                                                                                                                                                                                                                
     375.0000     125.0000   -5425.0000  5.47704E+02  259.919  0.00000E+00  1.00000E+00  1.00001  5.9980  1.9029E-10  1.1437E-10  1.7461E-02  2.6130E-04  1.0326E-10  2.6187E-05  9.8533E-11  3.5324E-04  3.6089E-04  1.0678E-10                                                                                                                                                                                                                                                                                                                                                                                                                                                                                                                                                                                                
     625.0000     125.0000   -5425.0000  5.47704E+02  259.920  0.00000E+00  1.00000E+00  1.00001  5.9980  1.2142E-09  2.7725E-10  1.7461E-02  2.6130E-04  1.6926E-10  2.6186E-05  9.8533E-11  3.5324E-04  3.6089E-04  1.8333E-10                                                                                                                                                                                                                                                                                                                                                                                                                                                                                                                                                                                                
     760.0000     125.0000   -5425.0000  5.47703E+02  259.920  0.00000E+00  1.00000E+00  1.00001  5.9980  1.2369E-09  2.8086E-10  1.7461E-02  2.6130E-04  1.7072E-10  2.6186E-05  9.8533E-11  3.5324E-04  3.6089E-04  1.8503E-10                                                                                                                                                                                                                                                                                                                                                                                                                                                                                                                                                                                                
     780.0000     125.0000   -5425.0000  5.47703E+02  259.920  0.00000E+00  1.00000E+00  1.00001  5.9980  1.1909E-09  2.7355E-10  1.7461E-02  2.6130E-04  1.6776E-10  2.6186E-05  9.8533E-11  3.5324E-04  3.6089E-04  1.8159E-10                                                                                                                                                                                                                                                                                                                                                                                                                                                                                                                                                                                                
     800.0000     125.0000   -5425.0000  5.47703E+02  259.920  0.00000E+00  1.00000E+00  1.00001  5.9980  5.1239E-10  1.6561E-10  1.7461E-02  2.6130E-04  1.2402E-10  2.6187E-05  9.8533E-11  3.5324E-04  3.6089E-04  1.3086E-10                                                                                                                                                                                                                                                                                                                                                                                                                                                                                                                                                                                                
     935.0000     125.0000   -5425.0000  5.47702E+02  259.920  0.00000E+00  1.00000E+00  1.00001  5.9980  1.9944E-10  1.1583E-10  1.7461E-02  2.6130E-04  1.0385E-10  2.6187E-05  9.8534E-11  3.5324E-04  3.6089E-04  1.0746E-10                                                                                                                                                                                                                                                                                                                                                                                                                                                                                                                                                                                                
    1185.0000     125.0000   -5425.0000  5.47699E+02  259.920  0.00000E+00  1.00000E+00  1.00001  5.9980  1.1193E-10  1.0191E-10  1.7461E-02  2.6130E-04  9.8208E-11  2.6187E-05  9.8535E-11  3.5324E-04  3.6089E-04  1.0092E-10                                                                                                                                                                                                                                                                                                                                                                                                                                                                                                                                                                                                
    1435.0000     125.0000   -5425.0000  5.47697E+02  259.920  0.00000E+00  1.00000E+00  1.00001  5.9980  1.0093E-10  1.0016E-10  1.7461E-02  2.6130E-04  9.7500E-11  2.6187E-05  9.8536E-11  3.5324E-04  3.6089E-04  1.0010E-10                                                                                                                                                                                                                                                                                                                                                                                                                                                                                                                                                                                                
     125.0000     125.0000   -5225.0000  5.31088E+02  238.190  0.00000E+00  1.00000E+00  1.00001  6.2506  1.7280E-09  3.5916E-10  5.6777E-03  2.7241E-04  2.1118E-10  2.9091E-05  1.0106E-10  3.5142E-04  3.4547E-04  2.2180E-10                                                                                                                                                                                                                                                                                                                                                                                                                                                                                                                                                                                                
     375.0000     125.0000   -5225.0000  5.31089E+02  238.189  0.00000E+00  1.00000E+00  1.00001  6.2506  1.3567E-08  2.2434E-09  5.6774E-03  2.7240E-04  1.0067E-09  2.9090E-05  1.0106E-10  3.5142E-04  3.4548E-04  1.1073E-09                                                                                                                                                                                                                                                                                                                                                                                                                                                                                                                                                                                                
     625.0000     125.0000   -5225.0000  5.31089E+02  238.189  0.00000E+00  1.00000E+00  1.00001  6.2507  1.3419E-07  2.1442E-08  5.6775E-03  2.7229E-04  9.1145E-09  2.9080E-05  1.0106E-10  3.5137E-04  3.4560E-04  1.0129E-08                                                                                                                                                                                                                                                                                                                                                                                                                                                                                                                                                                                                
     760.0000     125.0000   -5225.0000  5.31088E+02  238.189  0.00000E+00  1.00000E+00  1.00001  6.2507  1.3619E-07  2.1760E-08  5.6777E-03  2.7229E-04  9.2488E-09  2.9079E-05  1.0106E-10  3.5137E-04  3.4560E-04  1.0278E-08                                                                                                                                                                                                                                                                                                                                                                                                                                                                                                                                                                                                
     780.0000     125.0000   -5225.0000  5.31088E+02  238.189  0.00000E+00  1.00000E+00  1.00001  6.2507  1.3067E-07  2.0881E-08  5.6777E-03  2.7230E-04  8.8775E-09  2.9080E-05  1.0106E-10  3.5137E-04  3.4559E-04  9.8653E-09                                                                                                                                                                                                                                                                                                                                                                                                                                                                                                                                                                                                
     800.0000     125.0000   -5225.0000  5.31088E+02  238.190  0.00000E+00  1.00000E+00  1.00001  6.2506  5.1504E-08  8.2814E-09  5.6777E-03  2.7237E-04  3.5565E-09  2.9087E-05  1.0106E-10  3.5141E-04  3.4552E-04  3.9446E-09                                                                                                                                                                                                                                                                                                                                                                                                                                                                                                                                                                                                
     935.0000     125.0000   -5225.0000  5.31087E+02  238.190  0.00000E+00  1.00000E+00  1.00001  6.2506  1.4725E-08  2.4277E-09  5.6780E-03  2.7240E-04  1.0845E-09  2.9090E-05  1.0106E-10  3.5142E-04  3.4549E-04  1.1939E-09                                                                                                                                                                                                                                                                                                                                                                                                                                                                                                                                                                                                
    1185.0000     125.0000   -5225.0000  5.31084E+02  238.194  0.00000E+00  1.00000E+00  1.00001  6.2506  2.2752E-09  4.4624E-10  5.6790E-03  2.7241E-04  2.4794E-10  2.9091E-05  1.0106E-10  3.5142E-04  3.4548E-04  2.6272E-10                                                                                                                                                                                                                                                                                                                                                                                                                                                                                                                                                                                                
    1435.0000     125.0000   -5225.0000  5.31081E+02  238.197  0.00000E+00  1.00000E+00  1.00001  6.2505  3.2118E-10  1.3525E-10  5.6801E-03  2.7241E-04  1.1666E-10  2.9090E-05  1.0106E-10  3.5142E-04  3.4548E-04  1.1658E-10                                                                                                                                                                                                                                                                                                                                                                                                                                                                                                                                                                                                
     125.0000     125.0000   -4975.0000  5.09888E+02  227.267  0.00000E+00  1.00000E+00  1.00001  6.3905  1.2986E-07  2.0750E-08  3.1910E-03  2.7543E-04  8.7313E-09  3.0499E-05  1.0039E-10  3.4416E-04  3.4161E-04  9.8043E-09                                                                                                                                                                                                                                                                                                                                                                                                                                                                                                                                                                                                
     375.0000     125.0000   -4975.0000  5.09890E+02  227.260  0.00000E+00  1.00000E+00  1.00001  6.3911  8.4316E-07  1.3426E-07  3.1902E-03  2.7479E-04  5.6173E-08  3.0435E-05  1.0035E-10  3.4387E-04  3.4229E-04  6.3149E-08                                                                                                                                                                                                                                                                                                                                                                                                                                                                                                                                                                                                
     625.0000     125.0000   -4975.0000  5.09893E+02  227.253  0.00000E+00  1.00000E+00  1.00001  6.3957  6.5578E-06  1.0437E-06  3.1911E-03  2.6941E-04  4.3630E-07  2.9885E-05  1.0026E-10  3.4084E-04  3.4868E-04  4.9052E-07                                                                                                                                                                                                                                                                                                                                                                                                                                                                                                                                                                                                
     760.0000     125.0000   -4975.0000  5.09891E+02  227.254  0.00000E+00  1.00000E+00  1.00001  6.3956  6.6336E-06  1.0558E-06  3.1913E-03  2.6942E-04  4.4134E-07  2.9886E-05  1.0026E-10  3.4102E-04  3.4850E-04  4.9619E-07                                                                                                                                                                                                                                                                                                                                                                                                                                                                                                                                                                                                
     780.0000     125.0000   -4975.0000  5.09891E+02  227.254  0.00000E+00  1.00000E+00  1.00001  6.3954  6.3653E-06  1.0131E-06  3.1912E-03  2.6972E-04  4.2349E-07  2.9917E-05  1.0027E-10  3.4131E-04  3.4801E-04  4.7613E-07                                                                                                                                                                                                                                                                                                                                                                                                                                                                                                                                                                                                
     800.0000     125.0000   -4975.0000  5.09891E+02  227.259  0.00000E+00  1.00000E+00  1.00001  6.3925  2.6932E-06  4.2867E-07  3.1907E-03  2.7312E-04  1.7924E-07  3.0264E-05  1.0031E-10  3.4308E-04  3.4410E-04  2.0150E-07                                                                                                                                                                                                                                                                                                                                                                                                                                                                                                                                                                                                
     935.0000     125.0000   -4975.0000  5.09888E+02  227.263  0.00000E+00  1.00000E+00  1.00001  6.3911  9.0326E-07  1.4383E-07  3.1907E-03  2.7473E-04  6.0171E-08  3.0428E-05  1.0034E-10  3.4382E-04  3.4238E-04  6.7643E-08                                                                                                                                                                                                                                                                                                                                                                                                                                                                                                                                                                                                
    1185.0000     125.0000   -4975.0000  5.09883E+02  227.276  0.00000E+00  1.00000E+00  1.00001  6.3904  1.7292E-07  2.7603E-08  3.1925E-03  2.7539E-04  1.1596E-08  3.0494E-05  1.0040E-10  3.4415E-04  3.4165E-04  1.3025E-08                                                                                                                                                                                                                                                                                                                                                                                                                                                                                                                                                                                                
    1435.0000     125.0000   -4975.0000  5.09879E+02  227.288  0.00000E+00  1.00000E+00  1.00001  6.3901  2.5577E-08  4.1544E-09  3.1945E-03  2.7551E-04  1.7954E-09  3.0505E-05  1.0042E-10  3.4420E-04  3.4154E-04  2.0053E-09                                                                                                                                                                                                                                                                                                                                                                                                                                                                                                                                                                                                
     125.0000     125.0000   -4725.0000  4.88417E+02  215.836  0.00000E+00  1.00000E+00  1.00001  6.5493  3.4478E-06  5.4873E-07  1.7586E-03  2.7288E-04  2.2821E-07  3.1550E-05  9.6512E-11  3.3434E-04  3.3904E-04  2.5792E-07                                                                                                                                                                                                                                                                                                                                                                                                                                                                                                                                                                                                
     375.0000     125.0000   -4725.0000  4.88419E+02  215.426  0.00000E+00  1.00000E+00  1.00001  6.5656  1.7299E-05  2.7529E-06  1.7276E-03  2.6042E-04  1.1439E-06  3.0259E-05  9.5316E-11  3.2777E-04  3.5331E-04  1.2937E-06                                                                                                                                                                                                                                                                                                                                                                                                                                                                                                                                                                                                
     625.0000     125.0000   -4725.0000  4.88420E+02  214.723  0.00000E+00  1.00000E+00  1.00001  6.6550  1.0191E-04  1.6218E-05  1.7135E-03  1.8386E-04  6.7380E-06  2.1976E-05  9.3564E-11  2.7419E-04  5.0207E-04  7.6215E-06                                                                                                                                                                                                                                                                                                                                                                                                                                                                                                                                                                                                
     760.0000     125.0000   -4725.0000  4.88419E+02  214.690  0.00000E+00  1.00000E+00  1.00001  6.6549  1.0249E-04  1.6309E-05  1.7103E-03  1.8439E-04  6.7755E-06  2.2038E-05  9.3485E-11  2.7692E-04  4.9643E-04  7.6644E-06                                                                                                                                                                                                                                                                                                                                                                                                                                                                                                                                                                                                
     780.0000     125.0000   -4725.0000  4.88419E+02  214.670  0.00000E+00  1.00000E+00  1.00001  6.6500  9.8078E-05  1.5607E-05  1.7054E-03  1.8857E-04  6.4837E-06  2.2501E-05  9.3599E-11  2.8110E-04  4.8344E-04  7.3346E-06                                                                                                                                                                                                                                                                                                                                                                                                                                                                                                                                                                                                
     800.0000     125.0000   -4725.0000  4.88419E+02  215.210  0.00000E+00  1.00000E+00  1.00001  6.5928  4.5326E-05  7.2128E-06  1.7219E-03  2.3406E-04  2.9973E-06  2.7427E-05  9.4621E-11  3.1044E-04  3.9302E-04  3.3897E-06                                                                                                                                                                                                                                                                                                                                                                                                                                                                                                                                                                                                
     935.0000     125.0000   -4725.0000  4.88417E+02  215.478  0.00000E+00  1.00000E+00  1.00001  6.5660  1.8348E-05  2.9198E-06  1.7327E-03  2.5918E-04  1.2134E-06  3.0119E-05  9.5268E-11  3.2654E-04  3.5555E-04  1.3722E-06                                                                                                                                                                                                                                                                                                                                                                                                                                                                                                                                                                                                
    1185.0000     125.0000   -4725.0000  4.88414E+02  215.960  0.00000E+00  1.00000E+00  1.00001  6.5486  4.6869E-06  7.4592E-07  1.7704E-03  2.7164E-04  3.1026E-07  3.1402E-05  9.6729E-11  3.3363E-04  3.4069E-04  3.5059E-07                                                                                                                                                                                                                                                                                                                                                                                                                                                                                                                                                                                                