Title="TOUGHREACT V3.30-OMP: Aqueous Total & Species Concentrations in mol/kg h2o, Surface & Exchanged Species in mol/kg h2o, Dry blocks in mol/L medium"                                                                                                                                                                                                                                                                                                                                                                                                                                                                                                                                                                                                                                                                       
Variables= "X(m)"   "Y(m)"   "Z(m)"   "P(bar)"     "T(C)"   "SatGas"   "SatLiq"     "aH2O"       "pH"        "t_na+"        "t_cl-"      "t_hco3-"       "t_ca+2"      "t_so4-2"       "t_mg+2"       "t_ba+2"       "t_al+3"     "t_h4sio4"         "t_k+"                                                                                                                                                                                                                                                                                                                                                                                                                                                                                                                                                                     
Zone T= "1.90132744E+03 yr" I=      9J=     10K=     23F=Point 
     125.0000     125.0000   -5425.0000  5.47718E+02  259.239  0.00000E+00  1.00000E+00  1.00001  6.0054  1.0866E-10  1.0139E-10  1.6870E-02  2.6177E-04  9.8209E-11  2.6282E-05  9.8656E-11  3.5328E-04  3.6031E-04  1.0068E-10                                                                                                                                                                                                                                                                                                                                                                                                                                                                                                                                                                                                
     375.0000     125.0000   -5425.0000  5.47719E+02  259.239  0.00000E+00  1.00000E+00  1.00001  6.0054  1.8997E-10  1.1433E-10  1.6871E-02  2.6177E-04  1.0346E-10  2.6282E-05  9.8655E-11  3.5328E-04  3.6031E-04  1.0676E-10                                                                                                                                                                                                                                                                                                                                                                                                                                                                                                                                                                                                
     625.0000     125.0000   -5425.0000  5.47719E+02  259.240  0.00000E+00  1.00000E+00  1.00001  6.0054  1.2112E-09  2.7678E-10  1.6871E-02  2.6176E-04  1.6943E-10  2.6282E-05  9.8655E-11  3.5328E-04  3.6031E-04  1.8311E-10                                                                                                                                                                                                                                                                                                                                                                                                                                                                                                                                                                                                
     760.0000     125.0000   -5425.0000  5.47718E+02  259.240  0.00000E+00  1.00000E+00  1.00001  6.0054  1.2339E-09  2.8040E-10  1.6871E-02  2.6176E-04  1.7089E-10  2.6282E-05  9.8655E-11  3.5328E-04  3.6031E-04  1.8481E-10                                                                                                                                                                                                                                                                                                                                                                                                                                                                                                                                                                                                
     780.0000     125.0000   -5425.0000  5.47718E+02  259.240  0.00000E+00  1.00000E+00  1.00001  6.0054  1.1890E-09  2.7325E-10  1.6871E-02  2.6176E-04  1.6799E-10  2.6282E-05  9.8655E-11  3.5328E-04  3.6031E-04  1.8145E-10                                                                                                                                                                                                                                                                                                                                                                                                                                                                                                                                                                                                
     800.0000     125.0000   -5425.0000  5.47718E+02  259.240  0.00000E+00  1.00000E+00  1.00001  6.0054  5.0983E-10  1.6521E-10  1.6871E-02  2.6176E-04  1.2412E-10  2.6282E-05  9.8655E-11  3.5328E-04  3.6031E-04  1.3067E-10                                                                                                                                                                                                                                                                                                                                                                                                                                                                                                                                                                                                
     935.0000     125.0000   -5425.0000  5.47716E+02  259.240  0.00000E+00  1.00000E+00  1.00001  6.0054  1.9908E-10  1.1577E-10  1.6871E-02  2.6176E-04  1.0405E-10  2.6282E-05  9.8656E-11  3.5328E-04  3.6031E-04  1.0744E-10                                                                                                                                                                                                                                                                                                                                                                                                                                                                                                                                                                                                
    1185.0000     125.0000   -5425.0000  5.47714E+02  259.239  0.00000E+00  1.00000E+00  1.00001  6.0054  1.1187E-10  1.0190E-10  1.6871E-02  2.6177E-04  9.8416E-11  2.6282E-05  9.8657E-11  3.5328E-04  3.6031E-04  1.0092E-10                                                                                                                                                                                                                                                                                                                                                                                                                                                                                                                                                                                                
    1435.0000     125.0000   -5425.0000  5.47712E+02  259.240  0.00000E+00  1.00000E+00  1.00001  6.0054  1.0092E-10  1.0016E-10  1.6871E-02  2.6176E-04  9.7711E-11  2.6282E-05  9.8658E-11  3.5328E-04  3.6031E-04  1.0010E-10                                                                                                                                                                                                                                                                                                                                                                                                                                                                                                                                                                                                
     125.0000     125.0000   -5225.0000  5.31095E+02  238.186  0.00000E+00  1.00000E+00  1.00001  6.2506  1.7272E-09  3.5901E-10  5.6766E-03  2.7245E-04  2.1093E-10  2.9095E-05  1.0101E-10  3.5125E-04  3.4561E-04  2.2173E-10                                                                                                                                                                                                                                                                                                                                                                                                                                                                                                                                                                                                
     375.0000     125.0000   -5225.0000  5.31096E+02  238.185  0.00000E+00  1.00000E+00  1.00001  6.2506  1.3563E-08  2.2427E-09  5.6764E-03  2.7244E-04  1.0055E-09  2.9094E-05  1.0101E-10  3.5125E-04  3.4562E-04  1.1069E-09                                                                                                                                                                                                                                                                                                                                                                                                                                                                                                                                                                                                
     625.0000     125.0000   -5225.0000  5.31096E+02  238.185  0.00000E+00  1.00000E+00  1.00001  6.2507  1.3420E-07  2.1443E-08  5.6765E-03  2.7233E-04  9.1069E-09  2.9084E-05  1.0101E-10  3.5120E-04  3.4574E-04  1.0130E-08                                                                                                                                                                                                                                                                                                                                                                                                                                                                                                                                                                                                
     760.0000     125.0000   -5225.0000  5.31095E+02  238.186  0.00000E+00  1.00000E+00  1.00001  6.2507  1.3621E-07  2.1763E-08  5.6766E-03  2.7233E-04  9.2418E-09  2.9083E-05  1.0101E-10  3.5120E-04  3.4573E-04  1.0280E-08                                                                                                                                                                                                                                                                                                                                                                                                                                                                                                                                                                                                
     780.0000     125.0000   -5225.0000  5.31095E+02  238.186  0.00000E+00  1.00000E+00  1.00001  6.2507  1.3080E-07  2.0901E-08  5.6767E-03  2.7233E-04  8.8781E-09  2.9084E-05  1.0101E-10  3.5121E-04  3.4573E-04  9.8748E-09                                                                                                                                                                                                                                                                                                                                                                                                                                                                                                                                                                                                
     800.0000     125.0000   -5225.0000  5.31095E+02  238.186  0.00000E+00  1.00000E+00  1.00001  6.2507  5.1335E-08  8.2544E-09  5.6767E-03  2.7240E-04  3.5420E-09  2.9091E-05  1.0101E-10  3.5124E-04  3.4565E-04  3.9320E-09                                                                                                                                                                                                                                                                                                                                                                                                                                                                                                                                                                                                
     935.0000     125.0000   -5225.0000  5.31093E+02  238.187  0.00000E+00  1.00000E+00  1.00001  6.2506  1.4721E-08  2.4270E-09  5.6769E-03  2.7244E-04  1.0833E-09  2.9094E-05  1.0101E-10  3.5125E-04  3.4562E-04  1.1935E-09                                                                                                                                                                                                                                                                                                                                                                                                                                                                                                                                                                                                
    1185.0000     125.0000   -5225.0000  5.31090E+02  238.190  0.00000E+00  1.00000E+00  1.00001  6.2506  2.2735E-09  4.4597E-10  5.6779E-03  2.7245E-04  2.4761E-10  2.9095E-05  1.0101E-10  3.5126E-04  3.4561E-04  2.6260E-10                                                                                                                                                                                                                                                                                                                                                                                                                                                                                                                                                                                                
    1435.0000     125.0000   -5225.0000  5.31088E+02  238.194  0.00000E+00  1.00000E+00  1.00001  6.2505  3.2091E-10  1.3520E-10  5.6789E-03  2.7245E-04  1.1654E-10  2.9094E-05  1.0101E-10  3.5126E-04  3.4561E-04  1.1656E-10                                                                                                                                                                                                                                                                                                                                                                                                                                                                                                                                                                                                
     125.0000     125.0000   -4975.0000  5.09894E+02  227.265  0.00000E+00  1.00000E+00  1.00001  6.3905  1.2985E-07  2.0748E-08  3.1906E-03  2.7545E-04  8.7273E-09  3.0502E-05  1.0037E-10  3.4409E-04  3.4167E-04  9.8033E-09                                                                                                                                                                                                                                                                                                                                                                                                                                                                                                                                                                                                
     375.0000     125.0000   -4975.0000  5.09897E+02  227.258  0.00000E+00  1.00000E+00  1.00001  6.3911  8.4304E-07  1.3424E-07  3.1898E-03  2.7481E-04  5.6144E-08  3.0437E-05  1.0033E-10  3.4379E-04  3.4235E-04  6.3139E-08                                                                                                                                                                                                                                                                                                                                                                                                                                                                                                                                                                                                
     625.0000     125.0000   -4975.0000  5.09900E+02  227.251  0.00000E+00  1.00000E+00  1.00001  6.3957  6.5606E-06  1.0441E-06  3.1908E-03  2.6942E-04  4.3633E-07  2.9886E-05  1.0024E-10  3.4076E-04  3.4875E-04  4.9073E-07                                                                                                                                                                                                                                                                                                                                                                                                                                                                                                                                                                                                
     760.0000     125.0000   -4975.0000  5.09898E+02  227.252  0.00000E+00  1.00000E+00  1.00001  6.3957  6.6370E-06  1.0563E-06  3.1910E-03  2.6943E-04  4.4142E-07  2.9887E-05  1.0024E-10  3.4094E-04  3.4856E-04  4.9645E-07                                                                                                                                                                                                                                                                                                                                                                                                                                                                                                                                                                                                
     780.0000     125.0000   -4975.0000  5.09898E+02  227.252  0.00000E+00  1.00000E+00  1.00001  6.3954  6.3735E-06  1.0143E-06  3.1909E-03  2.6973E-04  4.2388E-07  2.9918E-05  1.0024E-10  3.4123E-04  3.4808E-04  4.7673E-07                                                                                                                                                                                                                                                                                                                                                                                                                                                                                                                                                                                                
     800.0000     125.0000   -4975.0000  5.09897E+02  227.258  0.00000E+00  1.00000E+00  1.00001  6.3925  2.6842E-06  4.2725E-07  3.1904E-03  2.7315E-04  1.7858E-07  3.0267E-05  1.0029E-10  3.4301E-04  3.4415E-04  2.0083E-07                                                                                                                                                                                                                                                                                                                                                                                                                                                                                                                                                                                                
     935.0000     125.0000   -4975.0000  5.09895E+02  227.262  0.00000E+00  1.00000E+00  1.00001  6.3911  9.0332E-07  1.4384E-07  3.1904E-03  2.7475E-04  6.0154E-08  3.0430E-05  1.0032E-10  3.4374E-04  3.4244E-04  6.7648E-08                                                                                                                                                                                                                                                                                                                                                                                                                                                                                                                                                                                                
    1185.0000     125.0000   -4975.0000  5.09889E+02  227.274  0.00000E+00  1.00000E+00  1.00001  6.3904  1.7287E-07  2.7595E-08  3.1921E-03  2.7541E-04  1.1589E-08  3.0496E-05  1.0038E-10  3.4408E-04  3.4171E-04  1.3021E-08                                                                                                                                                                                                                                                                                                                                                                                                                                                                                                                                                                                                
    1435.0000     125.0000   -4975.0000  5.09885E+02  227.286  0.00000E+00  1.00000E+00  1.00001  6.3901  2.5567E-08  4.1528E-09  3.1941E-03  2.7553E-04  1.7941E-09  3.0507E-05  1.0039E-10  3.4413E-04  3.4160E-04  2.0046E-09                                                                                                                                                                                                                                                                                                                                                                                                                                                                                                                                                                                                
     125.0000     125.0000   -4725.0000  4.88424E+02  215.833  0.00000E+00  1.00000E+00  1.00001  6.5493  3.4494E-06  5.4898E-07  1.7584E-03  2.7288E-04  2.2830E-07  3.1551E-05  9.6501E-11  3.3431E-04  3.3906E-04  2.5804E-07                                                                                                                                                                                                                                                                                                                                                                                                                                                                                                                                                                                                
     375.0000     125.0000   -4725.0000  4.88426E+02  215.424  0.00000E+00  1.00000E+00  1.00001  6.5657  1.7305E-05  2.7539E-06  1.7274E-03  2.6042E-04  1.1443E-06  3.0259E-05  9.5306E-11  3.2775E-04  3.5334E-04  1.2942E-06                                                                                                                                                                                                                                                                                                                                                                                                                                                                                                                                                                                                
     625.0000     125.0000   -4725.0000  4.88427E+02  214.722  0.00000E+00  1.00000E+00  1.00001  6.6550  1.0196E-04  1.6225E-05  1.7134E-03  1.8383E-04  6.7408E-06  2.1973E-05  9.3556E-11  2.7416E-04  5.0217E-04  7.6251E-06                                                                                                                                                                                                                                                                                                                                                                                                                                                                                                                                                                                                
     760.0000     125.0000   -4725.0000  4.88426E+02  214.688  0.00000E+00  1.00000E+00  1.00001  6.6549  1.0254E-04  1.6318E-05  1.7102E-03  1.8435E-04  6.7788E-06  2.2034E-05  9.3477E-11  2.7689E-04  4.9654E-04  7.6684E-06                                                                                                                                                                                                                                                                                                                                                                                                                                                                                                                                                                                                
     780.0000     125.0000   -4725.0000  4.88426E+02  214.669  0.00000E+00  1.00000E+00  1.00001  6.6501  9.8199E-05  1.5627E-05  1.7053E-03  1.8848E-04  6.4913E-06  2.2492E-05  9.3591E-11  2.8105E-04  4.8365E-04  7.3437E-06                                                                                                                                                                                                                                                                                                                                                                                                                                                                                                                                                                                                
     800.0000     125.0000   -4725.0000  4.88425E+02  215.208  0.00000E+00  1.00000E+00  1.00001  6.5927  4.5230E-05  7.1976E-06  1.7216E-03  2.3415E-04  2.9908E-06  2.7438E-05  9.4613E-11  3.1048E-04  3.9288E-04  3.3825E-06                                                                                                                                                                                                                                                                                                                                                                                                                                                                                                                                                                                                
     935.0000     125.0000   -4725.0000  4.88424E+02  215.476  0.00000E+00  1.00000E+00  1.00001  6.5660  1.8356E-05  2.9211E-06  1.7325E-03  2.5918E-04  1.2138E-06  3.0119E-05  9.5257E-11  3.2651E-04  3.5558E-04  1.3728E-06                                                                                                                                                                                                                                                                                                                                                                                                                                                                                                                                                                                                
    1185.0000     125.0000   -4725.0000  4.88420E+02  215.958  0.00000E+00  1.00000E+00  1.00001  6.5486  4.6887E-06  7.4620E-07  1.7702E-03  2.7164E-04  3.1035E-07  3.1403E-05  9.6717E-11  3.3360E-04  3.4072E-04  3.5072E-07                                                                                                                                                                                                                                                                                                                                                                                                                                                                                                                                                                                                