Title="TOUGHREACT V3.30-OMP: Aqueous Total & Species Concentrations in mol/kg h2o, Surface & Exchanged Species in mol/kg h2o, Dry blocks in mol/L medium"                                                                                                                                                                                                                                                                                                                                                                                                                                                                                                                                                                                                                                                                       
Variables= "X(m)"   "Y(m)"   "Z(m)"   "P(bar)"     "T(C)"   "SatGas"   "SatLiq"     "aH2O"       "pH"        "t_na+"        "t_cl-"      "t_hco3-"       "t_ca+2"      "t_so4-2"       "t_mg+2"       "t_ba+2"       "t_al+3"     "t_h4sio4"         "t_k+"                                                                                                                                                                                                                                                                                                                                                                                                                                                                                                                                                                     
Zone T= "6.33775814E+02 yr" I=      9J=     10K=     23F=Point 
     125.0000     125.0000   -5425.0000  5.47590E+02  250.999  0.00000E+00  1.00000E+00  1.00001  6.0973  1.0818E-10  1.0133E-10  1.1073E-02  2.6690E-04  1.0013E-10  2.7426E-05  9.9778E-11  3.5293E-04  3.5424E-04  1.0064E-10                                                                                                                                                                                                                                                                                                                                                                                                                                                                                                                                                                                                
     375.0000     125.0000   -5425.0000  5.47589E+02  250.999  0.00000E+00  1.00000E+00  1.00001  6.0973  1.8613E-10  1.1373E-10  1.1073E-02  2.6690E-04  1.0526E-10  2.7425E-05  9.9778E-11  3.5293E-04  3.5424E-04  1.0647E-10                                                                                                                                                                                                                                                                                                                                                                                                                                                                                                                                                                                                
     625.0000     125.0000   -5425.0000  5.47586E+02  251.000  0.00000E+00  1.00000E+00  1.00001  6.0973  1.1754E-09  2.7115E-10  1.1074E-02  2.6690E-04  1.7040E-10  2.7425E-05  9.9778E-11  3.5293E-04  3.5424E-04  1.8045E-10                                                                                                                                                                                                                                                                                                                                                                                                                                                                                                                                                                                                
     760.0000     125.0000   -5425.0000  5.47582E+02  251.000  0.00000E+00  1.00000E+00  1.00001  6.0973  1.1983E-09  2.7479E-10  1.1073E-02  2.6690E-04  1.7191E-10  2.7425E-05  9.9778E-11  3.5293E-04  3.5424E-04  1.8216E-10                                                                                                                                                                                                                                                                                                                                                                                                                                                                                                                                                                                                
     780.0000     125.0000   -5425.0000  5.47582E+02  251.000  0.00000E+00  1.00000E+00  1.00001  6.0973  1.1661E-09  2.6966E-10  1.1073E-02  2.6690E-04  1.6979E-10  2.7425E-05  9.9778E-11  3.5293E-04  3.5424E-04  1.7975E-10                                                                                                                                                                                                                                                                                                                                                                                                                                                                                                                                                                                                
     800.0000     125.0000   -5425.0000  5.47581E+02  251.000  0.00000E+00  1.00000E+00  1.00001  6.0973  4.7586E-10  1.5983E-10  1.1073E-02  2.6690E-04  1.2434E-10  2.7425E-05  9.9778E-11  3.5293E-04  3.5424E-04  1.2814E-10                                                                                                                                                                                                                                                                                                                                                                                                                                                                                                                                                                                                
     935.0000     125.0000   -5425.0000  5.47577E+02  251.000  0.00000E+00  1.00000E+00  1.00001  6.0973  1.9470E-10  1.1509E-10  1.1073E-02  2.6690E-04  1.0583E-10  2.7425E-05  9.9778E-11  3.5293E-04  3.5424E-04  1.0711E-10                                                                                                                                                                                                                                                                                                                                                                                                                                                                                                                                                                                                
    1185.0000     125.0000   -5425.0000  5.47568E+02  250.999  0.00000E+00  1.00000E+00  1.00001  6.0973  1.1114E-10  1.0180E-10  1.1073E-02  2.6690E-04  1.0033E-10  2.7425E-05  9.9779E-11  3.5293E-04  3.5424E-04  1.0086E-10                                                                                                                                                                                                                                                                                                                                                                                                                                                                                                                                                                                                
    1435.0000     125.0000   -5425.0000  5.47562E+02  250.999  0.00000E+00  1.00000E+00  1.00001  6.0973  1.0083E-10  1.0016E-10  1.1073E-02  2.6690E-04  9.9650E-11  2.7425E-05  9.9779E-11  3.5293E-04  3.5424E-04  1.0009E-10                                                                                                                                                                                                                                                                                                                                                                                                                                                                                                                                                                                                
     125.0000     125.0000   -5225.0000  5.30872E+02  238.150  0.00000E+00  1.00000E+00  1.00001  6.2507  1.7170E-09  3.5736E-10  5.6658E-03  2.7290E-04  2.0795E-10  2.9144E-05  1.0037E-10  3.4924E-04  3.4729E-04  2.2096E-10                                                                                                                                                                                                                                                                                                                                                                                                                                                                                                                                                                                                
     375.0000     125.0000   -5225.0000  5.30872E+02  238.150  0.00000E+00  1.00000E+00  1.00001  6.2507  1.3519E-08  2.2355E-09  5.6658E-03  2.7289E-04  9.9152E-10  2.9143E-05  1.0037E-10  3.4923E-04  3.4730E-04  1.1036E-09                                                                                                                                                                                                                                                                                                                                                                                                                                                                                                                                                                                                
     625.0000     125.0000   -5225.0000  5.30869E+02  238.151  0.00000E+00  1.00000E+00  1.00001  6.2508  1.3433E-07  2.1461E-08  5.6661E-03  2.7278E-04  9.0151E-09  2.9132E-05  1.0037E-10  3.4919E-04  3.4741E-04  1.0138E-08                                                                                                                                                                                                                                                                                                                                                                                                                                                                                                                                                                                                
     760.0000     125.0000   -5225.0000  5.30864E+02  238.151  0.00000E+00  1.00000E+00  1.00001  6.2508  1.3645E-07  2.1798E-08  5.6661E-03  2.7278E-04  9.1559E-09  2.9132E-05  1.0037E-10  3.4919E-04  3.4741E-04  1.0297E-08                                                                                                                                                                                                                                                                                                                                                                                                                                                                                                                                                                                                
     780.0000     125.0000   -5225.0000  5.30864E+02  238.151  0.00000E+00  1.00000E+00  1.00001  6.2508  1.3238E-07  2.1151E-08  5.6661E-03  2.7278E-04  8.8857E-09  2.9132E-05  1.0037E-10  3.4919E-04  3.4740E-04  9.9926E-09                                                                                                                                                                                                                                                                                                                                                                                                                                                                                                                                                                                                
     800.0000     125.0000   -5225.0000  5.30863E+02  238.151  0.00000E+00  1.00000E+00  1.00001  6.2507  4.8779E-08  7.8467E-09  5.6661E-03  2.7286E-04  3.3332E-09  2.9139E-05  1.0037E-10  3.4922E-04  3.4733E-04  3.7405E-09                                                                                                                                                                                                                                                                                                                                                                                                                                                                                                                                                                                                
     935.0000     125.0000   -5225.0000  5.30858E+02  238.151  0.00000E+00  1.00000E+00  1.00001  6.2507  1.4649E-08  2.4153E-09  5.6661E-03  2.7289E-04  1.0666E-09  2.9142E-05  1.0037E-10  3.4923E-04  3.4730E-04  1.1881E-09                                                                                                                                                                                                                                                                                                                                                                                                                                                                                                                                                                                                
    1185.0000     125.0000   -5225.0000  5.30847E+02  238.153  0.00000E+00  1.00000E+00  1.00001  6.2506  2.2456E-09  4.4148E-10  5.6666E-03  2.7290E-04  2.4305E-10  2.9143E-05  1.0037E-10  3.4924E-04  3.4729E-04  2.6050E-10                                                                                                                                                                                                                                                                                                                                                                                                                                                                                                                                                                                                
    1435.0000     125.0000   -5225.0000  5.30839E+02  238.155  0.00000E+00  1.00000E+00  1.00001  6.2506  3.1677E-10  1.3453E-10  5.6672E-03  2.7290E-04  1.1500E-10  2.9143E-05  1.0037E-10  3.4924E-04  3.4729E-04  1.1625E-10                                                                                                                                                                                                                                                                                                                                                                                                                                                                                                                                                                                                
     125.0000     125.0000   -4975.0000  5.09677E+02  227.240  0.00000E+00  1.00000E+00  1.00001  6.3906  1.2966E-07  2.0717E-08  3.1864E-03  2.7567E-04  8.6763E-09  3.0527E-05  1.0011E-10  3.4316E-04  3.4243E-04  9.7889E-09                                                                                                                                                                                                                                                                                                                                                                                                                                                                                                                                                                                                
     375.0000     125.0000   -4975.0000  5.09680E+02  227.235  0.00000E+00  1.00000E+00  1.00001  6.3912  8.4241E-07  1.3414E-07  3.1859E-03  2.7503E-04  5.5856E-08  3.0462E-05  1.0007E-10  3.4287E-04  3.4311E-04  6.3091E-08                                                                                                                                                                                                                                                                                                                                                                                                                                                                                                                                                                                                
     625.0000     125.0000   -4975.0000  5.09679E+02  227.230  0.00000E+00  1.00000E+00  1.00001  6.3958  6.5929E-06  1.0492E-06  3.1872E-03  2.6960E-04  4.3664E-07  2.9907E-05  9.9991E-11  3.3987E-04  3.4952E-04  4.9313E-07                                                                                                                                                                                                                                                                                                                                                                                                                                                                                                                                                                                                
     760.0000     125.0000   -4975.0000  5.09673E+02  227.230  0.00000E+00  1.00000E+00  1.00001  6.3958  6.6776E-06  1.0627E-06  3.1872E-03  2.6960E-04  4.4224E-07  2.9907E-05  9.9991E-11  3.4005E-04  3.4934E-04  4.9947E-07                                                                                                                                                                                                                                                                                                                                                                                                                                                                                                                                                                                                
     780.0000     125.0000   -4975.0000  5.09672E+02  227.230  0.00000E+00  1.00000E+00  1.00001  6.3956  6.4733E-06  1.0302E-06  3.1871E-03  2.6985E-04  4.2871E-07  2.9933E-05  9.9992E-11  3.4031E-04  3.4892E-04  4.8419E-07                                                                                                                                                                                                                                                                                                                                                                                                                                                                                                                                                                                                
     800.0000     125.0000   -4975.0000  5.09670E+02  227.235  0.00000E+00  1.00000E+00  1.00001  6.3925  2.5388E-06  4.0408E-07  3.1865E-03  2.7349E-04  1.6817E-07  3.0305E-05  1.0004E-10  3.4217E-04  3.4475E-04  1.8995E-07                                                                                                                                                                                                                                                                                                                                                                                                                                                                                                                                                                                                
     935.0000     125.0000   -4975.0000  5.09662E+02  227.237  0.00000E+00  1.00000E+00  1.00001  6.3912  9.0255E-07  1.4371E-07  3.1862E-03  2.7496E-04  5.9839E-08  3.0455E-05  1.0006E-10  3.4282E-04  3.4320E-04  6.7588E-08                                                                                                                                                                                                                                                                                                                                                                                                                                                                                                                                                                                                
    1185.0000     125.0000   -4975.0000  5.09642E+02  227.246  0.00000E+00  1.00000E+00  1.00001  6.3906  1.7146E-07  2.7370E-08  3.1874E-03  2.7563E-04  1.1444E-08  3.0522E-05  1.0012E-10  3.4314E-04  3.4248E-04  1.2915E-08                                                                                                                                                                                                                                                                                                                                                                                                                                                                                                                                                                                                
    1435.0000     125.0000   -4975.0000  5.09625E+02  227.255  0.00000E+00  1.00000E+00  1.00001  6.3903  2.5315E-08  4.1125E-09  3.1888E-03  2.7575E-04  1.7694E-09  3.0533E-05  1.0013E-10  3.4319E-04  3.4237E-04  1.9856E-09                                                                                                                                                                                                                                                                                                                                                                                                                                                                                                                                                                                                
     125.0000     125.0000   -4725.0000  4.88214E+02  215.804  0.00000E+00  1.00000E+00  1.00001  6.5497  3.4649E-06  5.5146E-07  1.7557E-03  2.7294E-04  2.2902E-07  3.1561E-05  9.6371E-11  3.3396E-04  3.3933E-04  2.5920E-07                                                                                                                                                                                                                                                                                                                                                                                                                                                                                                                                                                                                
     375.0000     125.0000   -4725.0000  4.88220E+02  215.398  0.00000E+00  1.00000E+00  1.00001  6.5660  1.7383E-05  2.7663E-06  1.7251E-03  2.6042E-04  1.1481E-06  3.0262E-05  9.5190E-11  3.2743E-04  3.5363E-04  1.3000E-06                                                                                                                                                                                                                                                                                                                                                                                                                                                                                                                                                                                                
     625.0000     125.0000   -4725.0000  4.88220E+02  214.703  0.00000E+00  1.00000E+00  1.00001  6.6558  1.0251E-04  1.6313E-05  1.7121E-03  1.8347E-04  6.7730E-06  2.1934E-05  9.3478E-11  2.7385E-04  5.0321E-04  7.6662E-06                                                                                                                                                                                                                                                                                                                                                                                                                                                                                                                                                                                                
     760.0000     125.0000   -4725.0000  4.88210E+02  214.677  0.00000E+00  1.00000E+00  1.00001  6.6557  1.0322E-04  1.6426E-05  1.7096E-03  1.8392E-04  6.8195E-06  2.1987E-05  9.3422E-11  2.7662E-04  4.9762E-04  7.7192E-06                                                                                                                                                                                                                                                                                                                                                                                                                                                                                                                                                                                                
     780.0000     125.0000   -4725.0000  4.88208E+02  214.660  0.00000E+00  1.00000E+00  1.00001  6.6516  9.9696E-05  1.5865E-05  1.7054E-03  1.8743E-04  6.5863E-06  2.2376E-05  9.3532E-11  2.8050E-04  4.8599E-04  7.4556E-06                                                                                                                                                                                                                                                                                                                                                                                                                                                                                                                                                                                                
     800.0000     125.0000   -4725.0000  4.88207E+02  215.187  0.00000E+00  1.00000E+00  1.00001  6.5910  4.3082E-05  6.8557E-06  1.7186E-03  2.3625E-04  2.8459E-06  2.7668E-05  9.4538E-11  3.1172E-04  3.8954E-04  3.2219E-06                                                                                                                                                                                                                                                                                                                                                                                                                                                                                                                                                                                                
     935.0000     125.0000   -4725.0000  4.88194E+02  215.447  0.00000E+00  1.00000E+00  1.00001  6.5664  1.8404E-05  2.9287E-06  1.7300E-03  2.5921E-04  1.2156E-06  3.0125E-05  9.5132E-11  3.2620E-04  3.5585E-04  1.3764E-06                                                                                                                                                                                                                                                                                                                                                                                                                                                                                                                                                                                                
    1185.0000     125.0000   -4725.0000  4.88161E+02  215.924  0.00000E+00  1.00000E+00  1.00001  6.5490  4.6771E-06  7.4434E-07  1.7671E-03  2.7172E-04  3.0917E-07  3.1416E-05  9.6574E-11  3.3326E-04  3.4096E-04  3.4985E-07                                                                                                                                                                                                                                                                                                                                                                                                                                                                                                                                                                                                