Title="TOUGHREACT V3.30-OMP: Aqueous Total & Species Concentrations in mol/kg h2o, Surface & Exchanged Species in mol/kg h2o, Dry blocks in mol/L medium"                                                                                                                                                                                                                                                                                                                                                                                                                                                                                                                                                                                                                                                                       
Variables= "X(m)"   "Y(m)"   "Z(m)"   "P(bar)"     "T(C)"   "SatGas"   "SatLiq"     "aH2O"       "pH"        "t_na+"        "t_cl-"      "t_hco3-"       "t_ca+2"      "t_so4-2"       "t_mg+2"       "t_ba+2"       "t_al+3"     "t_h4sio4"         "t_k+"                                                                                                                                                                                                                                                                                                                                                                                                                                                                                                                                                                     
Zone T= "8.42921833E+02 yr" I=      9J=     10K=     23F=Point 
     125.0000     125.0000   -5425.0000  5.47759E+02  252.359  0.00000E+00  1.00000E+00  1.00001  6.0818  1.0826E-10  1.0134E-10  1.1876E-02  2.6612E-04  9.9884E-11  2.7239E-05  9.9633E-11  3.5308E-04  3.5515E-04  1.0065E-10                                                                                                                                                                                                                                                                                                                                                                                                                                                                                                                                                                                                
     375.0000     125.0000   -5425.0000  5.47759E+02  252.359  0.00000E+00  1.00000E+00  1.00001  6.0818  1.8676E-10  1.1383E-10  1.1876E-02  2.6611E-04  1.0504E-10  2.7239E-05  9.9632E-11  3.5308E-04  3.5515E-04  1.0652E-10                                                                                                                                                                                                                                                                                                                                                                                                                                                                                                                                                                                                
     625.0000     125.0000   -5425.0000  5.47757E+02  252.360  0.00000E+00  1.00000E+00  1.00001  6.0818  1.1812E-09  2.7206E-10  1.1877E-02  2.6611E-04  1.7035E-10  2.7239E-05  9.9632E-11  3.5308E-04  3.5515E-04  1.8088E-10                                                                                                                                                                                                                                                                                                                                                                                                                                                                                                                                                                                                
     760.0000     125.0000   -5425.0000  5.47755E+02  252.360  0.00000E+00  1.00000E+00  1.00001  6.0818  1.2041E-09  2.7571E-10  1.1877E-02  2.6611E-04  1.7186E-10  2.7239E-05  9.9632E-11  3.5308E-04  3.5515E-04  1.8259E-10                                                                                                                                                                                                                                                                                                                                                                                                                                                                                                                                                                                                
     780.0000     125.0000   -5425.0000  5.47754E+02  252.360  0.00000E+00  1.00000E+00  1.00001  6.0818  1.1698E-09  2.7025E-10  1.1877E-02  2.6611E-04  1.6961E-10  2.7239E-05  9.9632E-11  3.5308E-04  3.5515E-04  1.8003E-10                                                                                                                                                                                                                                                                                                                                                                                                                                                                                                                                                                                                
     800.0000     125.0000   -5425.0000  5.47754E+02  252.360  0.00000E+00  1.00000E+00  1.00001  6.0818  4.8247E-10  1.6088E-10  1.1877E-02  2.6611E-04  1.2446E-10  2.7239E-05  9.9632E-11  3.5308E-04  3.5515E-04  1.2863E-10                                                                                                                                                                                                                                                                                                                                                                                                                                                                                                                                                                                                
     935.0000     125.0000   -5425.0000  5.47751E+02  252.359  0.00000E+00  1.00000E+00  1.00001  6.0818  1.9546E-10  1.1521E-10  1.1876E-02  2.6611E-04  1.0561E-10  2.7239E-05  9.9632E-11  3.5308E-04  3.5515E-04  1.0717E-10                                                                                                                                                                                                                                                                                                                                                                                                                                                                                                                                                                                                
    1185.0000     125.0000   -5425.0000  5.47745E+02  252.359  0.00000E+00  1.00000E+00  1.00001  6.0818  1.1127E-10  1.0182E-10  1.1876E-02  2.6611E-04  1.0008E-10  2.7239E-05  9.9633E-11  3.5308E-04  3.5515E-04  1.0087E-10                                                                                                                                                                                                                                                                                                                                                                                                                                                                                                                                                                                                
    1435.0000     125.0000   -5425.0000  5.47741E+02  252.359  0.00000E+00  1.00000E+00  1.00001  6.0818  1.0085E-10  1.0016E-10  1.1876E-02  2.6611E-04  9.9399E-11  2.7239E-05  9.9634E-11  3.5308E-04  3.5514E-04  1.0009E-10                                                                                                                                                                                                                                                                                                                                                                                                                                                                                                                                                                                                
     125.0000     125.0000   -5225.0000  5.31056E+02  238.156  0.00000E+00  1.00000E+00  1.00001  6.2507  1.7186E-09  3.5761E-10  5.6674E-03  2.7282E-04  2.0843E-10  2.9136E-05  1.0048E-10  3.4957E-04  3.4701E-04  2.2108E-10                                                                                                                                                                                                                                                                                                                                                                                                                                                                                                                                                                                                
     375.0000     125.0000   -5225.0000  5.31056E+02  238.156  0.00000E+00  1.00000E+00  1.00001  6.2507  1.3526E-08  2.2367E-09  5.6674E-03  2.7281E-04  9.9384E-10  2.9135E-05  1.0048E-10  3.4957E-04  3.4702E-04  1.1041E-09                                                                                                                                                                                                                                                                                                                                                                                                                                                                                                                                                                                                
     625.0000     125.0000   -5225.0000  5.31054E+02  238.156  0.00000E+00  1.00000E+00  1.00001  6.2508  1.3430E-07  2.1457E-08  5.6677E-03  2.7270E-04  9.0300E-09  2.9124E-05  1.0047E-10  3.4952E-04  3.4714E-04  1.0137E-08                                                                                                                                                                                                                                                                                                                                                                                                                                                                                                                                                                                                
     760.0000     125.0000   -5225.0000  5.31052E+02  238.157  0.00000E+00  1.00000E+00  1.00001  6.2508  1.3641E-07  2.1792E-08  5.6678E-03  2.7270E-04  9.1701E-09  2.9124E-05  1.0047E-10  3.4952E-04  3.4713E-04  1.0294E-08                                                                                                                                                                                                                                                                                                                                                                                                                                                                                                                                                                                                
     780.0000     125.0000   -5225.0000  5.31051E+02  238.157  0.00000E+00  1.00000E+00  1.00001  6.2508  1.3212E-07  2.1110E-08  5.6678E-03  2.7271E-04  8.8846E-09  2.9124E-05  1.0047E-10  3.4953E-04  3.4713E-04  9.9732E-09                                                                                                                                                                                                                                                                                                                                                                                                                                                                                                                                                                                                
     800.0000     125.0000   -5225.0000  5.31051E+02  238.157  0.00000E+00  1.00000E+00  1.00001  6.2507  4.9352E-08  7.9381E-09  5.6677E-03  2.7278E-04  3.3775E-09  2.9131E-05  1.0047E-10  3.4956E-04  3.4705E-04  3.7834E-09                                                                                                                                                                                                                                                                                                                                                                                                                                                                                                                                                                                                
     935.0000     125.0000   -5225.0000  5.31047E+02  238.157  0.00000E+00  1.00000E+00  1.00001  6.2507  1.4667E-08  2.4182E-09  5.6678E-03  2.7281E-04  1.0697E-09  2.9134E-05  1.0048E-10  3.4957E-04  3.4702E-04  1.1894E-09                                                                                                                                                                                                                                                                                                                                                                                                                                                                                                                                                                                                
    1185.0000     125.0000   -5225.0000  5.31040E+02  238.159  0.00000E+00  1.00000E+00  1.00001  6.2506  2.2527E-09  4.4261E-10  5.6684E-03  2.7282E-04  2.4396E-10  2.9135E-05  1.0048E-10  3.4957E-04  3.4701E-04  2.6103E-10                                                                                                                                                                                                                                                                                                                                                                                                                                                                                                                                                                                                
    1435.0000     125.0000   -5225.0000  5.31034E+02  238.161  0.00000E+00  1.00000E+00  1.00001  6.2506  3.1774E-10  1.3469E-10  5.6691E-03  2.7282E-04  1.1527E-10  2.9135E-05  1.0048E-10  3.4958E-04  3.4701E-04  1.1632E-10                                                                                                                                                                                                                                                                                                                                                                                                                                                                                                                                                                                                
     125.0000     125.0000   -4975.0000  5.09858E+02  227.245  0.00000E+00  1.00000E+00  1.00001  6.3906  1.2971E-07  2.0726E-08  3.1872E-03  2.7563E-04  8.6861E-09  3.0522E-05  1.0015E-10  3.4331E-04  3.4231E-04  9.7928E-09                                                                                                                                                                                                                                                                                                                                                                                                                                                                                                                                                                                                
     375.0000     125.0000   -4975.0000  5.09860E+02  227.240  0.00000E+00  1.00000E+00  1.00001  6.3912  8.4230E-07  1.3412E-07  3.1866E-03  2.7499E-04  5.5889E-08  3.0458E-05  1.0011E-10  3.4302E-04  3.4299E-04  6.3083E-08                                                                                                                                                                                                                                                                                                                                                                                                                                                                                                                                                                                                
     625.0000     125.0000   -4975.0000  5.09861E+02  227.234  0.00000E+00  1.00000E+00  1.00001  6.3958  6.5882E-06  1.0485E-06  3.1879E-03  2.6957E-04  4.3663E-07  2.9903E-05  1.0003E-10  3.4002E-04  3.4939E-04  4.9278E-07                                                                                                                                                                                                                                                                                                                                                                                                                                                                                                                                                                                                
     760.0000     125.0000   -4975.0000  5.09856E+02  227.234  0.00000E+00  1.00000E+00  1.00001  6.3958  6.6711E-06  1.0617E-06  3.1879E-03  2.6957E-04  4.4212E-07  2.9904E-05  1.0003E-10  3.4020E-04  3.4922E-04  4.9898E-07                                                                                                                                                                                                                                                                                                                                                                                                                                                                                                                                                                                                
     780.0000     125.0000   -4975.0000  5.09856E+02  227.234  0.00000E+00  1.00000E+00  1.00001  6.3956  6.4571E-06  1.0276E-06  3.1878E-03  2.6983E-04  4.2793E-07  2.9931E-05  1.0003E-10  3.4046E-04  3.4878E-04  4.8298E-07                                                                                                                                                                                                                                                                                                                                                                                                                                                                                                                                                                                                
     800.0000     125.0000   -4975.0000  5.09855E+02  227.239  0.00000E+00  1.00000E+00  1.00001  6.3925  2.5737E-06  4.0965E-07  3.1872E-03  2.7343E-04  1.7061E-07  3.0298E-05  1.0008E-10  3.4231E-04  3.4467E-04  1.9256E-07                                                                                                                                                                                                                                                                                                                                                                                                                                                                                                                                                                                                
     935.0000     125.0000   -4975.0000  5.09849E+02  227.242  0.00000E+00  1.00000E+00  1.00001  6.3912  9.0318E-07  1.4381E-07  3.1870E-03  2.7492E-04  5.9924E-08  3.0451E-05  1.0011E-10  3.4297E-04  3.4308E-04  6.7635E-08                                                                                                                                                                                                                                                                                                                                                                                                                                                                                                                                                                                                
    1185.0000     125.0000   -4975.0000  5.09836E+02  227.252  0.00000E+00  1.00000E+00  1.00001  6.3905  1.7196E-07  2.7448E-08  3.1884E-03  2.7559E-04  1.1485E-08  3.0517E-05  1.0016E-10  3.4330E-04  3.4235E-04  1.2952E-08                                                                                                                                                                                                                                                                                                                                                                                                                                                                                                                                                                                                
    1435.0000     125.0000   -4975.0000  5.09824E+02  227.262  0.00000E+00  1.00000E+00  1.00001  6.3903  2.5399E-08  4.1259E-09  3.1900E-03  2.7571E-04  1.7763E-09  3.0529E-05  1.0017E-10  3.4334E-04  3.4224E-04  1.9919E-09                                                                                                                                                                                                                                                                                                                                                                                                                                                                                                                                                                                                
     125.0000     125.0000   -4725.0000  4.88391E+02  215.809  0.00000E+00  1.00000E+00  1.00001  6.5496  3.4643E-06  5.5135E-07  1.7562E-03  2.7293E-04  2.2903E-07  3.1559E-05  9.6392E-11  3.3402E-04  3.3929E-04  2.5916E-07                                                                                                                                                                                                                                                                                                                                                                                                                                                                                                                                                                                                
     375.0000     125.0000   -4725.0000  4.88393E+02  215.402  0.00000E+00  1.00000E+00  1.00001  6.5660  1.7373E-05  2.7646E-06  1.7255E-03  2.6042E-04  1.1476E-06  3.0261E-05  9.5206E-11  3.2748E-04  3.5359E-04  1.2993E-06                                                                                                                                                                                                                                                                                                                                                                                                                                                                                                                                                                                                
     625.0000     125.0000   -4725.0000  4.88394E+02  214.705  0.00000E+00  1.00000E+00  1.00001  6.6557  1.0244E-04  1.6301E-05  1.7122E-03  1.8351E-04  6.7687E-06  2.1939E-05  9.3484E-11  2.7389E-04  5.0308E-04  7.6605E-06                                                                                                                                                                                                                                                                                                                                                                                                                                                                                                                                                                                                
     760.0000     125.0000   -4725.0000  4.88388E+02  214.672  0.00000E+00  1.00000E+00  1.00001  6.6556  1.0309E-04  1.6405E-05  1.7091E-03  1.8398E-04  6.8116E-06  2.1994E-05  9.3409E-11  2.7660E-04  4.9755E-04  7.7095E-06                                                                                                                                                                                                                                                                                                                                                                                                                                                                                                                                                                                                
     780.0000     125.0000   -4725.0000  4.88387E+02  214.653  0.00000E+00  1.00000E+00  1.00001  6.6515  9.9437E-05  1.5823E-05  1.7047E-03  1.8759E-04  6.5697E-06  2.2394E-05  9.3516E-11  2.8051E-04  4.8574E-04  7.4362E-06                                                                                                                                                                                                                                                                                                                                                                                                                                                                                                                                                                                                
     800.0000     125.0000   -4725.0000  4.88386E+02  215.190  0.00000E+00  1.00000E+00  1.00001  6.5916  4.3734E-05  6.9595E-06  1.7192E-03  2.3563E-04  2.8895E-06  2.7600E-05  9.4545E-11  3.1132E-04  3.9056E-04  3.2706E-06                                                                                                                                                                                                                                                                                                                                                                                                                                                                                                                                                                                                
     935.0000     125.0000   -4725.0000  4.88377E+02  215.453  0.00000E+00  1.00000E+00  1.00001  6.5663  1.8412E-05  2.9299E-06  1.7305E-03  2.5919E-04  1.2164E-06  3.0122E-05  9.5152E-11  3.2624E-04  3.5582E-04  1.3770E-06                                                                                                                                                                                                                                                                                                                                                                                                                                                                                                                                                                                                
    1185.0000     125.0000   -4725.0000  4.88358E+02  215.931  0.00000E+00  1.00000E+00  1.00001  6.5489  4.6895E-06  7.4632E-07  1.7678E-03  2.7170E-04  3.1006E-07  3.1412E-05  9.6600E-11  3.3331E-04  3.4093E-04  3.5078E-07                                                                                                                                                                                                                                                                                                                                                                                                                                                                                                                                                                                                