Title="TOUGHREACT V3.30-OMP: Aqueous Total & Species Concentrations in mol/kg h2o, Surface & Exchanged Species in mol/kg h2o, Dry blocks in mol/L medium"                                                                                                                                                                                                                                                                                                                                                                                                                                                                                                                                                                                                                                                                       
Variables= "X(m)"   "Y(m)"   "Z(m)"   "P(bar)"     "T(C)"   "SatGas"   "SatLiq"     "aH2O"       "pH"        "t_na+"        "t_cl-"      "t_hco3-"       "t_ca+2"      "t_so4-2"       "t_mg+2"       "t_ba+2"       "t_al+3"     "t_h4sio4"         "t_k+"                                                                                                                                                                                                                                                                                                                                                                                                                                                                                                                                                                     
Zone T= "2.11047346E+03 yr" I=      9J=     10K=     23F=Point 
     125.0000     125.0000   -5425.0000  5.47688E+02  260.599  0.00000E+00  1.00000E+00  1.00001  5.9907  1.0874E-10  1.0140E-10  1.8070E-02  2.6084E-04  9.7781E-11  2.6091E-05  9.8407E-11  3.5320E-04  3.6148E-04  1.0068E-10                                                                                                                                                                                                                                                                                                                                                                                                                                                                                                                                                                                                
     375.0000     125.0000   -5425.0000  5.47689E+02  260.600  0.00000E+00  1.00000E+00  1.00001  5.9907  1.9062E-10  1.1442E-10  1.8071E-02  2.6084E-04  1.0305E-10  2.6091E-05  9.8406E-11  3.5320E-04  3.6148E-04  1.0680E-10                                                                                                                                                                                                                                                                                                                                                                                                                                                                                                                                                                                                
     625.0000     125.0000   -5425.0000  5.47689E+02  260.600  0.00000E+00  1.00000E+00  1.00001  5.9907  1.2172E-09  2.7772E-10  1.8071E-02  2.6084E-04  1.6908E-10  2.6091E-05  9.8405E-11  3.5320E-04  3.6148E-04  1.8356E-10                                                                                                                                                                                                                                                                                                                                                                                                                                                                                                                                                                                                
     760.0000     125.0000   -5425.0000  5.47688E+02  260.600  0.00000E+00  1.00000E+00  1.00001  5.9907  1.2398E-09  2.8133E-10  1.8071E-02  2.6084E-04  1.7054E-10  2.6091E-05  9.8406E-11  3.5320E-04  3.6148E-04  1.8525E-10                                                                                                                                                                                                                                                                                                                                                                                                                                                                                                                                                                                                
     780.0000     125.0000   -5425.0000  5.47688E+02  260.600  0.00000E+00  1.00000E+00  1.00001  5.9907  1.1928E-09  2.7384E-10  1.8071E-02  2.6084E-04  1.6751E-10  2.6091E-05  9.8406E-11  3.5320E-04  3.6148E-04  1.8173E-10                                                                                                                                                                                                                                                                                                                                                                                                                                                                                                                                                                                                
     800.0000     125.0000   -5425.0000  5.47688E+02  260.600  0.00000E+00  1.00000E+00  1.00001  5.9907  5.1495E-10  1.6602E-10  1.8071E-02  2.6084E-04  1.2391E-10  2.6091E-05  9.8406E-11  3.5320E-04  3.6148E-04  1.3105E-10                                                                                                                                                                                                                                                                                                                                                                                                                                                                                                                                                                                                
     935.0000     125.0000   -5425.0000  5.47687E+02  260.600  0.00000E+00  1.00000E+00  1.00001  5.9907  1.9980E-10  1.1588E-10  1.8071E-02  2.6084E-04  1.0364E-10  2.6091E-05  9.8406E-11  3.5320E-04  3.6148E-04  1.0749E-10                                                                                                                                                                                                                                                                                                                                                                                                                                                                                                                                                                                                
    1185.0000     125.0000   -5425.0000  5.47684E+02  260.600  0.00000E+00  1.00000E+00  1.00001  5.9907  1.1198E-10  1.0192E-10  1.8071E-02  2.6084E-04  9.7990E-11  2.6091E-05  9.8408E-11  3.5320E-04  3.6148E-04  1.0093E-10                                                                                                                                                                                                                                                                                                                                                                                                                                                                                                                                                                                                
    1435.0000     125.0000   -5425.0000  5.47683E+02  260.600  0.00000E+00  1.00000E+00  1.00001  5.9907  1.0093E-10  1.0016E-10  1.8071E-02  2.6084E-04  9.7281E-11  2.6091E-05  9.8409E-11  3.5320E-04  3.6148E-04  1.0010E-10                                                                                                                                                                                                                                                                                                                                                                                                                                                                                                                                                                                                
     125.0000     125.0000   -5225.0000  5.31081E+02  238.193  0.00000E+00  1.00000E+00  1.00001  6.2506  1.7289E-09  3.5930E-10  5.6788E-03  2.7237E-04  2.1142E-10  2.9087E-05  1.0111E-10  3.5159E-04  3.4534E-04  2.2187E-10                                                                                                                                                                                                                                                                                                                                                                                                                                                                                                                                                                                                
     375.0000     125.0000   -5225.0000  5.31082E+02  238.192  0.00000E+00  1.00000E+00  1.00001  6.2506  1.3571E-08  2.2441E-09  5.6785E-03  2.7236E-04  1.0079E-09  2.9086E-05  1.0111E-10  3.5158E-04  3.4535E-04  1.1076E-09                                                                                                                                                                                                                                                                                                                                                                                                                                                                                                                                                                                                
     625.0000     125.0000   -5225.0000  5.31083E+02  238.192  0.00000E+00  1.00000E+00  1.00001  6.2507  1.3418E-07  2.1440E-08  5.6786E-03  2.7226E-04  9.1220E-09  2.9076E-05  1.0111E-10  3.5153E-04  3.4546E-04  1.0128E-08                                                                                                                                                                                                                                                                                                                                                                                                                                                                                                                                                                                                
     760.0000     125.0000   -5225.0000  5.31082E+02  238.193  0.00000E+00  1.00000E+00  1.00001  6.2507  1.3617E-07  2.1757E-08  5.6788E-03  2.7226E-04  9.2558E-09  2.9075E-05  1.0111E-10  3.5153E-04  3.4546E-04  1.0277E-08                                                                                                                                                                                                                                                                                                                                                                                                                                                                                                                                                                                                
     780.0000     125.0000   -5225.0000  5.31081E+02  238.193  0.00000E+00  1.00000E+00  1.00001  6.2507  1.3054E-07  2.0861E-08  5.6788E-03  2.7226E-04  8.8770E-09  2.9076E-05  1.0111E-10  3.5154E-04  3.4545E-04  9.8558E-09                                                                                                                                                                                                                                                                                                                                                                                                                                                                                                                                                                                                
     800.0000     125.0000   -5225.0000  5.31081E+02  238.193  0.00000E+00  1.00000E+00  1.00001  6.2506  5.1672E-08  8.3081E-09  5.6788E-03  2.7233E-04  3.5710E-09  2.9083E-05  1.0111E-10  3.5157E-04  3.4538E-04  3.9572E-09                                                                                                                                                                                                                                                                                                                                                                                                                                                                                                                                                                                                
     935.0000     125.0000   -5225.0000  5.31080E+02  238.194  0.00000E+00  1.00000E+00  1.00001  6.2506  1.4729E-08  2.4284E-09  5.6791E-03  2.7236E-04  1.0858E-09  2.9086E-05  1.0111E-10  3.5158E-04  3.4535E-04  1.1942E-09                                                                                                                                                                                                                                                                                                                                                                                                                                                                                                                                                                                                
    1185.0000     125.0000   -5225.0000  5.31077E+02  238.198  0.00000E+00  1.00000E+00  1.00001  6.2505  2.2769E-09  4.4651E-10  5.6801E-03  2.7237E-04  2.4828E-10  2.9086E-05  1.0111E-10  3.5159E-04  3.4534E-04  2.6285E-10                                                                                                                                                                                                                                                                                                                                                                                                                                                                                                                                                                                                
    1435.0000     125.0000   -5225.0000  5.31075E+02  238.201  0.00000E+00  1.00000E+00  1.00001  6.2505  3.2144E-10  1.3529E-10  5.6812E-03  2.7237E-04  1.1679E-10  2.9086E-05  1.0111E-10  3.5159E-04  3.4534E-04  1.1660E-10                                                                                                                                                                                                                                                                                                                                                                                                                                                                                                                                                                                                
     125.0000     125.0000   -4975.0000  5.09881E+02  227.269  0.00000E+00  1.00000E+00  1.00001  6.3904  1.2987E-07  2.0752E-08  3.1913E-03  2.7541E-04  8.7354E-09  3.0497E-05  1.0042E-10  3.4424E-04  3.4154E-04  9.8053E-09                                                                                                                                                                                                                                                                                                                                                                                                                                                                                                                                                                                                
     375.0000     125.0000   -4975.0000  5.09884E+02  227.262  0.00000E+00  1.00000E+00  1.00001  6.3911  8.4329E-07  1.3429E-07  3.1905E-03  2.7478E-04  5.6201E-08  3.0433E-05  1.0037E-10  3.4394E-04  3.4223E-04  6.3159E-08                                                                                                                                                                                                                                                                                                                                                                                                                                                                                                                                                                                                
     625.0000     125.0000   -4975.0000  5.09887E+02  227.254  0.00000E+00  1.00000E+00  1.00001  6.3957  6.5549E-06  1.0432E-06  3.1914E-03  2.6939E-04  4.3626E-07  2.9883E-05  1.0028E-10  3.4091E-04  3.4862E-04  4.9031E-07                                                                                                                                                                                                                                                                                                                                                                                                                                                                                                                                                                                                
     760.0000     125.0000   -4975.0000  5.09885E+02  227.255  0.00000E+00  1.00000E+00  1.00001  6.3956  6.6302E-06  1.0552E-06  3.1916E-03  2.6940E-04  4.4127E-07  2.9884E-05  1.0028E-10  3.4109E-04  3.4843E-04  4.9594E-07                                                                                                                                                                                                                                                                                                                                                                                                                                                                                                                                                                                                
     780.0000     125.0000   -4975.0000  5.09885E+02  227.255  0.00000E+00  1.00000E+00  1.00001  6.3954  6.3572E-06  1.0118E-06  3.1915E-03  2.6971E-04  4.2310E-07  2.9916E-05  1.0029E-10  3.4138E-04  3.4794E-04  4.7552E-07                                                                                                                                                                                                                                                                                                                                                                                                                                                                                                                                                                                                
     800.0000     125.0000   -4975.0000  5.09884E+02  227.261  0.00000E+00  1.00000E+00  1.00001  6.3925  2.7020E-06  4.3008E-07  3.1910E-03  2.7309E-04  1.7989E-07  3.0261E-05  1.0033E-10  3.4315E-04  3.4405E-04  2.0216E-07                                                                                                                                                                                                                                                                                                                                                                                                                                                                                                                                                                                                
     935.0000     125.0000   -4975.0000  5.09882E+02  227.265  0.00000E+00  1.00000E+00  1.00001  6.3911  9.0320E-07  1.4382E-07  3.1910E-03  2.7471E-04  6.0189E-08  3.0426E-05  1.0037E-10  3.4389E-04  3.4232E-04  6.7638E-08                                                                                                                                                                                                                                                                                                                                                                                                                                                                                                                                                                                                
    1185.0000     125.0000   -4975.0000  5.09876E+02  227.278  0.00000E+00  1.00000E+00  1.00001  6.3904  1.7297E-07  2.7610E-08  3.1928E-03  2.7537E-04  1.1604E-08  3.0492E-05  1.0042E-10  3.4423E-04  3.4159E-04  1.3028E-08                                                                                                                                                                                                                                                                                                                                                                                                                                                                                                                                                                                                
    1435.0000     125.0000   -4975.0000  5.09873E+02  227.290  0.00000E+00  1.00000E+00  1.00001  6.3901  2.5586E-08  4.1559E-09  3.1949E-03  2.7549E-04  1.7967E-09  3.0503E-05  1.0044E-10  3.4428E-04  3.4148E-04  2.0060E-09                                                                                                                                                                                                                                                                                                                                                                                                                                                                                                                                                                                                
     125.0000     125.0000   -4725.0000  4.88411E+02  215.838  0.00000E+00  1.00000E+00  1.00001  6.5493  3.4462E-06  5.4848E-07  1.7589E-03  2.7287E-04  2.2813E-07  3.1550E-05  9.6523E-11  3.3436E-04  3.3901E-04  2.5780E-07                                                                                                                                                                                                                                                                                                                                                                                                                                                                                                                                                                                                
     375.0000     125.0000   -4725.0000  4.88412E+02  215.429  0.00000E+00  1.00000E+00  1.00001  6.5656  1.7292E-05  2.7518E-06  1.7278E-03  2.6042E-04  1.1436E-06  3.0258E-05  9.5326E-11  3.2780E-04  3.5329E-04  1.2933E-06                                                                                                                                                                                                                                                                                                                                                                                                                                                                                                                                                                                                
     625.0000     125.0000   -4725.0000  4.88414E+02  214.725  0.00000E+00  1.00000E+00  1.00001  6.6549  1.0186E-04  1.6210E-05  1.7136E-03  1.8390E-04  6.7351E-06  2.1980E-05  9.3571E-11  2.7422E-04  5.0198E-04  7.6178E-06                                                                                                                                                                                                                                                                                                                                                                                                                                                                                                                                                                                                
     760.0000     125.0000   -4725.0000  4.88413E+02  214.691  0.00000E+00  1.00000E+00  1.00001  6.6548  1.0243E-04  1.6300E-05  1.7104E-03  1.8443E-04  6.7723E-06  2.2042E-05  9.3493E-11  2.7695E-04  4.9633E-04  7.6603E-06                                                                                                                                                                                                                                                                                                                                                                                                                                                                                                                                                                                                
     780.0000     125.0000   -4725.0000  4.88412E+02  214.672  0.00000E+00  1.00000E+00  1.00001  6.6499  9.7957E-05  1.5588E-05  1.7054E-03  1.8866E-04  6.4760E-06  2.2511E-05  9.3608E-11  2.8116E-04  4.8323E-04  7.3256E-06                                                                                                                                                                                                                                                                                                                                                                                                                                                                                                                                                                                                
     800.0000     125.0000   -4725.0000  4.88412E+02  215.212  0.00000E+00  1.00000E+00  1.00001  6.5929  4.5419E-05  7.2276E-06  1.7221E-03  2.3396E-04  3.0037E-06  2.7417E-05  9.4628E-11  3.1039E-04  3.9316E-04  3.3966E-06                                                                                                                                                                                                                                                                                                                                                                                                                                                                                                                                                                                                
     935.0000     125.0000   -4725.0000  4.88411E+02  215.480  0.00000E+00  1.00000E+00  1.00001  6.5659  1.8340E-05  2.9185E-06  1.7329E-03  2.5919E-04  1.2130E-06  3.0119E-05  9.5278E-11  3.2656E-04  3.5552E-04  1.3716E-06                                                                                                                                                                                                                                                                                                                                                                                                                                                                                                                                                                                                
    1185.0000     125.0000   -4725.0000  4.88407E+02  215.963  0.00000E+00  1.00000E+00  1.00001  6.5485  4.6851E-06  7.4563E-07  1.7707E-03  2.7163E-04  3.1018E-07  3.1401E-05  9.6740E-11  3.3366E-04  3.4067E-04  3.5045E-07                                                                                                                                                                                                                                                                                                                                                                                                                                                                                                                                                                                                