Title="TOUGHREACT V3.30-OMP: Aqueous Total & Species Concentrations in mol/kg h2o, Surface & Exchanged Species in mol/kg h2o, Dry blocks in mol/L medium"                                                                                                                                                                                                                                                                                                                                                                                                                                                                                                                                                                                                                                                                       
Variables= "X(m)"   "Y(m)"   "Z(m)"   "P(bar)"     "T(C)"   "SatGas"   "SatLiq"     "aH2O"       "pH"        "t_na+"        "t_cl-"      "t_hco3-"       "t_ca+2"      "t_so4-2"       "t_mg+2"       "t_ba+2"       "t_al+3"     "t_h4sio4"         "t_k+"                                                                                                                                                                                                                                                                                                                                                                                                                                                                                                                                                                     
Zone T= "2.53510326E+03 yr" I=      9J=     10K=     23F=Point 
     125.0000     125.0000   -5425.0000  5.47630E+02  263.362  0.00000E+00  1.00000E+00  1.00001  5.9612  1.0891E-10  1.0142E-10  2.0763E-02  2.5890E-04  9.6793E-11  2.5701E-05  9.7831E-11  3.5291E-04  3.6405E-04  1.0069E-10                                                                                                                                                                                                                                                                                                                                                                                                                                                                                                                                                                                                
     375.0000     125.0000   -5425.0000  5.47630E+02  263.362  0.00000E+00  1.00000E+00  1.00001  5.9612  1.9193E-10  1.1462E-10  2.0763E-02  2.5890E-04  1.0208E-10  2.5700E-05  9.7830E-11  3.5291E-04  3.6405E-04  1.0690E-10                                                                                                                                                                                                                                                                                                                                                                                                                                                                                                                                                                                                
     625.0000     125.0000   -5425.0000  5.47630E+02  263.363  0.00000E+00  1.00000E+00  1.00001  5.9612  1.2294E-09  2.7963E-10  2.0764E-02  2.5890E-04  1.6817E-10  2.5700E-05  9.7829E-11  3.5291E-04  3.6405E-04  1.8446E-10                                                                                                                                                                                                                                                                                                                                                                                                                                                                                                                                                                                                
     760.0000     125.0000   -5425.0000  5.47630E+02  263.363  0.00000E+00  1.00000E+00  1.00001  5.9612  1.2519E-09  2.8321E-10  2.0764E-02  2.5890E-04  1.6960E-10  2.5700E-05  9.7830E-11  3.5291E-04  3.6405E-04  1.8614E-10                                                                                                                                                                                                                                                                                                                                                                                                                                                                                                                                                                                                
     780.0000     125.0000   -5425.0000  5.47629E+02  263.363  0.00000E+00  1.00000E+00  1.00001  5.9612  1.2006E-09  2.7505E-10  2.0764E-02  2.5890E-04  1.6633E-10  2.5700E-05  9.7830E-11  3.5291E-04  3.6405E-04  1.8231E-10                                                                                                                                                                                                                                                                                                                                                                                                                                                                                                                                                                                                
     800.0000     125.0000   -5425.0000  5.47629E+02  263.363  0.00000E+00  1.00000E+00  1.00001  5.9612  5.2534E-10  1.6765E-10  2.0764E-02  2.5890E-04  1.2332E-10  2.5700E-05  9.7830E-11  3.5291E-04  3.6405E-04  1.3182E-10                                                                                                                                                                                                                                                                                                                                                                                                                                                                                                                                                                                                
     935.0000     125.0000   -5425.0000  5.47628E+02  263.363  0.00000E+00  1.00000E+00  1.00001  5.9612  2.0125E-10  1.1610E-10  2.0764E-02  2.5890E-04  1.0268E-10  2.5700E-05  9.7830E-11  3.5291E-04  3.6405E-04  1.0760E-10                                                                                                                                                                                                                                                                                                                                                                                                                                                                                                                                                                                                
    1185.0000     125.0000   -5425.0000  5.47626E+02  263.362  0.00000E+00  1.00000E+00  1.00001  5.9612  1.1222E-10  1.0195E-10  2.0763E-02  2.5890E-04  9.7005E-11  2.5700E-05  9.7832E-11  3.5291E-04  3.6405E-04  1.0094E-10                                                                                                                                                                                                                                                                                                                                                                                                                                                                                                                                                                                                
    1435.0000     125.0000   -5425.0000  5.47624E+02  263.363  0.00000E+00  1.00000E+00  1.00001  5.9612  1.0097E-10  1.0016E-10  2.0764E-02  2.5890E-04  9.6289E-11  2.5700E-05  9.7833E-11  3.5291E-04  3.6405E-04  1.0010E-10                                                                                                                                                                                                                                                                                                                                                                                                                                                                                                                                                                                                
     125.0000     125.0000   -5225.0000  5.31056E+02  238.210  0.00000E+00  1.00000E+00  1.00001  6.2505  1.7325E-09  3.5988E-10  5.6838E-03  2.7223E-04  2.1243E-10  2.9071E-05  1.0132E-10  3.5226E-04  3.4479E-04  2.2214E-10                                                                                                                                                                                                                                                                                                                                                                                                                                                                                                                                                                                                
     375.0000     125.0000   -5225.0000  5.31057E+02  238.208  0.00000E+00  1.00000E+00  1.00001  6.2505  1.3589E-08  2.2470E-09  5.6834E-03  2.7222E-04  1.0128E-09  2.9070E-05  1.0132E-10  3.5225E-04  3.4480E-04  1.1089E-09                                                                                                                                                                                                                                                                                                                                                                                                                                                                                                                                                                                                
     625.0000     125.0000   -5225.0000  5.31057E+02  238.208  0.00000E+00  1.00000E+00  1.00001  6.2506  1.3414E-07  2.1434E-08  5.6834E-03  2.7211E-04  9.1526E-09  2.9059E-05  1.0132E-10  3.5220E-04  3.4491E-04  1.0125E-08                                                                                                                                                                                                                                                                                                                                                                                                                                                                                                                                                                                                
     760.0000     125.0000   -5225.0000  5.31056E+02  238.209  0.00000E+00  1.00000E+00  1.00001  6.2506  1.3608E-07  2.1743E-08  5.6836E-03  2.7211E-04  9.2839E-09  2.9059E-05  1.0132E-10  3.5220E-04  3.4491E-04  1.0270E-08                                                                                                                                                                                                                                                                                                                                                                                                                                                                                                                                                                                                
     780.0000     125.0000   -5225.0000  5.31056E+02  238.209  0.00000E+00  1.00000E+00  1.00001  6.2506  1.3003E-07  2.0780E-08  5.6836E-03  2.7211E-04  8.8751E-09  2.9060E-05  1.0132E-10  3.5221E-04  3.4490E-04  9.8176E-09                                                                                                                                                                                                                                                                                                                                                                                                                                                                                                                                                                                                
     800.0000     125.0000   -5225.0000  5.31056E+02  238.209  0.00000E+00  1.00000E+00  1.00001  6.2506  5.2340E-08  8.4147E-09  5.6837E-03  2.7218E-04  3.6293E-09  2.9066E-05  1.0132E-10  3.5224E-04  3.4483E-04  4.0072E-09                                                                                                                                                                                                                                                                                                                                                                                                                                                                                                                                                                                                
     935.0000     125.0000   -5225.0000  5.31055E+02  238.210  0.00000E+00  1.00000E+00  1.00001  6.2505  1.4747E-08  2.4312E-09  5.6840E-03  2.7221E-04  1.0909E-09  2.9070E-05  1.0132E-10  3.5225E-04  3.4480E-04  1.1955E-09                                                                                                                                                                                                                                                                                                                                                                                                                                                                                                                                                                                                
    1185.0000     125.0000   -5225.0000  5.31052E+02  238.214  0.00000E+00  1.00000E+00  1.00001  6.2505  2.2835E-09  4.4757E-10  5.6852E-03  2.7222E-04  2.4963E-10  2.9070E-05  1.0132E-10  3.5226E-04  3.4479E-04  2.6335E-10                                                                                                                                                                                                                                                                                                                                                                                                                                                                                                                                                                                                
    1435.0000     125.0000   -5225.0000  5.31050E+02  238.218  0.00000E+00  1.00000E+00  1.00001  6.2504  3.2251E-10  1.3546E-10  5.6864E-03  2.7222E-04  1.1728E-10  2.9070E-05  1.0132E-10  3.5226E-04  3.4479E-04  1.1668E-10                                                                                                                                                                                                                                                                                                                                                                                                                                                                                                                                                                                                
     125.0000     125.0000   -4975.0000  5.09856E+02  227.277  0.00000E+00  1.00000E+00  1.00001  6.3904  1.2993E-07  2.0761E-08  3.1927E-03  2.7534E-04  8.7517E-09  3.0489E-05  1.0050E-10  3.4455E-04  3.4129E-04  9.8092E-09                                                                                                                                                                                                                                                                                                                                                                                                                                                                                                                                                                                                
     375.0000     125.0000   -4975.0000  5.09858E+02  227.270  0.00000E+00  1.00000E+00  1.00001  6.3910  8.4381E-07  1.3437E-07  3.1918E-03  2.7470E-04  5.6319E-08  3.0425E-05  1.0046E-10  3.4425E-04  3.4197E-04  6.3198E-08                                                                                                                                                                                                                                                                                                                                                                                                                                                                                                                                                                                                
     625.0000     125.0000   -4975.0000  5.09861E+02  227.261  0.00000E+00  1.00000E+00  1.00001  6.3956  6.5434E-06  1.0414E-06  3.1926E-03  2.6933E-04  4.3611E-07  2.9876E-05  1.0037E-10  3.4121E-04  3.4836E-04  4.8945E-07                                                                                                                                                                                                                                                                                                                                                                                                                                                                                                                                                                                                
     760.0000     125.0000   -4975.0000  5.09860E+02  227.263  0.00000E+00  1.00000E+00  1.00001  6.3956  6.6163E-06  1.0530E-06  3.1928E-03  2.6935E-04  4.4096E-07  2.9877E-05  1.0037E-10  3.4139E-04  3.4817E-04  4.9490E-07                                                                                                                                                                                                                                                                                                                                                                                                                                                                                                                                                                                                
     780.0000     125.0000   -4975.0000  5.09859E+02  227.263  0.00000E+00  1.00000E+00  1.00001  6.3953  6.3248E-06  1.0066E-06  3.1927E-03  2.6967E-04  4.2153E-07  2.9911E-05  1.0037E-10  3.4169E-04  3.4766E-04  4.7310E-07                                                                                                                                                                                                                                                                                                                                                                                                                                                                                                                                                                                                
     800.0000     125.0000   -4975.0000  5.09859E+02  227.269  0.00000E+00  1.00000E+00  1.00001  6.3925  2.7370E-06  4.3566E-07  3.1923E-03  2.7299E-04  1.8249E-07  3.0250E-05  1.0042E-10  3.4344E-04  3.4383E-04  2.0478E-07                                                                                                                                                                                                                                                                                                                                                                                                                                                                                                                                                                                                
     935.0000     125.0000   -4975.0000  5.09857E+02  227.273  0.00000E+00  1.00000E+00  1.00001  6.3910  9.0291E-07  1.4378E-07  3.1923E-03  2.7464E-04  6.0258E-08  3.0418E-05  1.0045E-10  3.4420E-04  3.4206E-04  6.7618E-08                                                                                                                                                                                                                                                                                                                                                                                                                                                                                                                                                                                                
    1185.0000     125.0000   -4975.0000  5.09851E+02  227.286  0.00000E+00  1.00000E+00  1.00001  6.3903  1.7315E-07  2.7639E-08  3.1943E-03  2.7530E-04  1.1633E-08  3.0484E-05  1.0051E-10  3.4455E-04  3.4133E-04  1.3042E-08                                                                                                                                                                                                                                                                                                                                                                                                                                                                                                                                                                                                
    1435.0000     125.0000   -4975.0000  5.09848E+02  227.299  0.00000E+00  1.00000E+00  1.00001  6.3900  2.5623E-08  4.1617E-09  3.1964E-03  2.7542E-04  1.8018E-09  3.0495E-05  1.0053E-10  3.4460E-04  3.4122E-04  2.0087E-09                                                                                                                                                                                                                                                                                                                                                                                                                                                                                                                                                                                                
     125.0000     125.0000   -4725.0000  4.88385E+02  215.848  0.00000E+00  1.00000E+00  1.00001  6.5492  3.4396E-06  5.4744E-07  1.7598E-03  2.7285E-04  2.2780E-07  3.1546E-05  9.6569E-11  3.3448E-04  3.3892E-04  2.5732E-07                                                                                                                                                                                                                                                                                                                                                                                                                                                                                                                                                                                                
     375.0000     125.0000   -4725.0000  4.88387E+02  215.438  0.00000E+00  1.00000E+00  1.00001  6.5655  1.7266E-05  2.7477E-06  1.7286E-03  2.6042E-04  1.1423E-06  3.0257E-05  9.5368E-11  3.2790E-04  3.5319E-04  1.2913E-06                                                                                                                                                                                                                                                                                                                                                                                                                                                                                                                                                                                                
     625.0000     125.0000   -4725.0000  4.88388E+02  214.732  0.00000E+00  1.00000E+00  1.00001  6.6546  1.0166E-04  1.6178E-05  1.7141E-03  1.8403E-04  6.7233E-06  2.1994E-05  9.3603E-11  2.7433E-04  5.0159E-04  7.6029E-06                                                                                                                                                                                                                                                                                                                                                                                                                                                                                                                                                                                                
     760.0000     125.0000   -4725.0000  4.88387E+02  214.698  0.00000E+00  1.00000E+00  1.00001  6.6545  1.0221E-04  1.6265E-05  1.7109E-03  1.8458E-04  6.7590E-06  2.2058E-05  9.3524E-11  2.7708E-04  4.9590E-04  7.6437E-06                                                                                                                                                                                                                                                                                                                                                                                                                                                                                                                                                                                                
     780.0000     125.0000   -4725.0000  4.88387E+02  214.679  0.00000E+00  1.00000E+00  1.00001  6.6493  9.7472E-05  1.5511E-05  1.7057E-03  1.8901E-04  6.4453E-06  2.2549E-05  9.3642E-11  2.8138E-04  4.8239E-04  7.2893E-06                                                                                                                                                                                                                                                                                                                                                                                                                                                                                                                                                                                                
     800.0000     125.0000   -4725.0000  4.88387E+02  215.220  0.00000E+00  1.00000E+00  1.00001  6.5931  4.5779E-05  7.2850E-06  1.7230E-03  2.3360E-04  3.0285E-06  2.7376E-05  9.4660E-11  3.1021E-04  3.9371E-04  3.4236E-06                                                                                                                                                                                                                                                                                                                                                                                                                                                                                                                                                                                                
     935.0000     125.0000   -4725.0000  4.88386E+02  215.489  0.00000E+00  1.00000E+00  1.00001  6.5658  1.8306E-05  2.9132E-06  1.7337E-03  2.5919E-04  1.2113E-06  3.0119E-05  9.5321E-11  3.2668E-04  3.5541E-04  1.3691E-06                                                                                                                                                                                                                                                                                                                                                                                                                                                                                                                                                                                                
    1185.0000     125.0000   -4725.0000  4.88383E+02  215.973  0.00000E+00  1.00000E+00  1.00001  6.5484  4.6772E-06  7.4438E-07  1.7716E-03  2.7162E-04  3.0979E-07  3.1398E-05  9.6785E-11  3.3378E-04  3.4057E-04  3.4987E-07                                                                                                                                                                                                                                                                                                                                                                                                                                                                                                                                                                                                