Title="TOUGHREACT V3.30-OMP: Aqueous Total & Species Concentrations in mol/kg h2o, Surface & Exchanged Species in mol/kg h2o, Dry blocks in mol/L medium"                                                                                                                                                                                                                                                                                                                                                                                                                                                                                                                                                                                                                                                                       
Variables= "X(m)"   "Y(m)"   "Z(m)"   "P(bar)"     "T(C)"   "SatGas"   "SatLiq"     "aH2O"       "pH"        "t_na+"        "t_cl-"      "t_hco3-"       "t_ca+2"      "t_so4-2"       "t_mg+2"       "t_ba+2"       "t_al+3"     "t_h4sio4"         "t_k+"                                                                                                                                                                                                                                                                                                                                                                                                                                                                                                                                                                     
Zone T= "2.21821535E+03 yr" I=      9J=     10K=     23F=Point 
     125.0000     125.0000   -5425.0000  5.47673E+02  261.300  0.00000E+00  1.00000E+00  1.00001  5.9831  1.0879E-10  1.0141E-10  1.8720E-02  2.6035E-04  9.7546E-11  2.5992E-05  9.8270E-11  3.5314E-04  3.6211E-04  1.0069E-10                                                                                                                                                                                                                                                                                                                                                                                                                                                                                                                                                                                                
     375.0000     125.0000   -5425.0000  5.47674E+02  261.300  0.00000E+00  1.00000E+00  1.00001  5.9831  1.9095E-10  1.1447E-10  1.8721E-02  2.6035E-04  1.0282E-10  2.5992E-05  9.8269E-11  3.5314E-04  3.6211E-04  1.0683E-10                                                                                                                                                                                                                                                                                                                                                                                                                                                                                                                                                                                                
     625.0000     125.0000   -5425.0000  5.47674E+02  261.301  0.00000E+00  1.00000E+00  1.00001  5.9831  1.2203E-09  2.7821E-10  1.8721E-02  2.6035E-04  1.6888E-10  2.5992E-05  9.8269E-11  3.5314E-04  3.6211E-04  1.8378E-10                                                                                                                                                                                                                                                                                                                                                                                                                                                                                                                                                                                                
     760.0000     125.0000   -5425.0000  5.47673E+02  261.301  0.00000E+00  1.00000E+00  1.00001  5.9831  1.2429E-09  2.8180E-10  1.8721E-02  2.6035E-04  1.7033E-10  2.5992E-05  9.8269E-11  3.5314E-04  3.6211E-04  1.8548E-10                                                                                                                                                                                                                                                                                                                                                                                                                                                                                                                                                                                                
     780.0000     125.0000   -5425.0000  5.47673E+02  261.301  0.00000E+00  1.00000E+00  1.00001  5.9831  1.1948E-09  2.7415E-10  1.8721E-02  2.6035E-04  1.6724E-10  2.5992E-05  9.8269E-11  3.5314E-04  3.6211E-04  1.8188E-10                                                                                                                                                                                                                                                                                                                                                                                                                                                                                                                                                                                                
     800.0000     125.0000   -5425.0000  5.47673E+02  261.301  0.00000E+00  1.00000E+00  1.00001  5.9831  5.1758E-10  1.6643E-10  1.8721E-02  2.6035E-04  1.2378E-10  2.5992E-05  9.8269E-11  3.5314E-04  3.6211E-04  1.3125E-10                                                                                                                                                                                                                                                                                                                                                                                                                                                                                                                                                                                                
     935.0000     125.0000   -5425.0000  5.47672E+02  261.301  0.00000E+00  1.00000E+00  1.00001  5.9831  2.0016E-10  1.1594E-10  1.8721E-02  2.6035E-04  1.0341E-10  2.5992E-05  9.8269E-11  3.5314E-04  3.6211E-04  1.0752E-10                                                                                                                                                                                                                                                                                                                                                                                                                                                                                                                                                                                                
    1185.0000     125.0000   -5425.0000  5.47669E+02  261.301  0.00000E+00  1.00000E+00  1.00001  5.9831  1.1204E-10  1.0192E-10  1.8721E-02  2.6035E-04  9.7756E-11  2.5992E-05  9.8271E-11  3.5314E-04  3.6211E-04  1.0093E-10                                                                                                                                                                                                                                                                                                                                                                                                                                                                                                                                                                                                
    1435.0000     125.0000   -5425.0000  5.47667E+02  261.301  0.00000E+00  1.00000E+00  1.00001  5.9831  1.0094E-10  1.0016E-10  1.8721E-02  2.6035E-04  9.7045E-11  2.5992E-05  9.8272E-11  3.5315E-04  3.6210E-04  1.0010E-10                                                                                                                                                                                                                                                                                                                                                                                                                                                                                                                                                                                                
     125.0000     125.0000   -5225.0000  5.31074E+02  238.197  0.00000E+00  1.00000E+00  1.00001  6.2506  1.7298E-09  3.5945E-10  5.6800E-03  2.7234E-04  2.1168E-10  2.9083E-05  1.0117E-10  3.5176E-04  3.4520E-04  2.2194E-10                                                                                                                                                                                                                                                                                                                                                                                                                                                                                                                                                                                                
     375.0000     125.0000   -5225.0000  5.31075E+02  238.196  0.00000E+00  1.00000E+00  1.00001  6.2506  1.3576E-08  2.2449E-09  5.6797E-03  2.7233E-04  1.0091E-09  2.9082E-05  1.0117E-10  3.5175E-04  3.4521E-04  1.1079E-09                                                                                                                                                                                                                                                                                                                                                                                                                                                                                                                                                                                                
     625.0000     125.0000   -5225.0000  5.31076E+02  238.196  0.00000E+00  1.00000E+00  1.00001  6.2507  1.3417E-07  2.1439E-08  5.6798E-03  2.7222E-04  9.1298E-09  2.9071E-05  1.0116E-10  3.5170E-04  3.4532E-04  1.0127E-08                                                                                                                                                                                                                                                                                                                                                                                                                                                                                                                                                                                                
     760.0000     125.0000   -5225.0000  5.31075E+02  238.197  0.00000E+00  1.00000E+00  1.00001  6.2507  1.3615E-07  2.1753E-08  5.6800E-03  2.7222E-04  9.2629E-09  2.9071E-05  1.0116E-10  3.5170E-04  3.4532E-04  1.0275E-08                                                                                                                                                                                                                                                                                                                                                                                                                                                                                                                                                                                                
     780.0000     125.0000   -5225.0000  5.31075E+02  238.197  0.00000E+00  1.00000E+00  1.00001  6.2507  1.3041E-07  2.0840E-08  5.6800E-03  2.7222E-04  8.8765E-09  2.9072E-05  1.0116E-10  3.5171E-04  3.4531E-04  9.8461E-09                                                                                                                                                                                                                                                                                                                                                                                                                                                                                                                                                                                                
     800.0000     125.0000   -5225.0000  5.31075E+02  238.197  0.00000E+00  1.00000E+00  1.00001  6.2506  5.1843E-08  8.3354E-09  5.6800E-03  2.7229E-04  3.5859E-09  2.9079E-05  1.0116E-10  3.5174E-04  3.4524E-04  3.9700E-09                                                                                                                                                                                                                                                                                                                                                                                                                                                                                                                                                                                                
     935.0000     125.0000   -5225.0000  5.31073E+02  238.198  0.00000E+00  1.00000E+00  1.00001  6.2506  1.4734E-08  2.4292E-09  5.6802E-03  2.7232E-04  1.0871E-09  2.9082E-05  1.0117E-10  3.5175E-04  3.4521E-04  1.1945E-09                                                                                                                                                                                                                                                                                                                                                                                                                                                                                                                                                                                                
    1185.0000     125.0000   -5225.0000  5.31070E+02  238.202  0.00000E+00  1.00000E+00  1.00001  6.2505  2.2785E-09  4.4678E-10  5.6813E-03  2.7233E-04  2.4862E-10  2.9082E-05  1.0117E-10  3.5176E-04  3.4520E-04  2.6298E-10                                                                                                                                                                                                                                                                                                                                                                                                                                                                                                                                                                                                
    1435.0000     125.0000   -5225.0000  5.31068E+02  238.205  0.00000E+00  1.00000E+00  1.00001  6.2505  3.2171E-10  1.3533E-10  5.6825E-03  2.7233E-04  1.1691E-10  2.9082E-05  1.0117E-10  3.5176E-04  3.4520E-04  1.1662E-10                                                                                                                                                                                                                                                                                                                                                                                                                                                                                                                                                                                                
     125.0000     125.0000   -4975.0000  5.09874E+02  227.271  0.00000E+00  1.00000E+00  1.00001  6.3904  1.2989E-07  2.0754E-08  3.1917E-03  2.7540E-04  8.7395E-09  3.0495E-05  1.0044E-10  3.4432E-04  3.4148E-04  9.8063E-09                                                                                                                                                                                                                                                                                                                                                                                                                                                                                                                                                                                                
     375.0000     125.0000   -4975.0000  5.09877E+02  227.264  0.00000E+00  1.00000E+00  1.00001  6.3910  8.4342E-07  1.3431E-07  3.1908E-03  2.7476E-04  5.6231E-08  3.0431E-05  1.0039E-10  3.4402E-04  3.4216E-04  6.3169E-08                                                                                                                                                                                                                                                                                                                                                                                                                                                                                                                                                                                                
     625.0000     125.0000   -4975.0000  5.09880E+02  227.256  0.00000E+00  1.00000E+00  1.00001  6.3956  6.5520E-06  1.0428E-06  3.1917E-03  2.6938E-04  4.3622E-07  2.9881E-05  1.0031E-10  3.4099E-04  3.4855E-04  4.9009E-07                                                                                                                                                                                                                                                                                                                                                                                                                                                                                                                                                                                                
     760.0000     125.0000   -4975.0000  5.09878E+02  227.257  0.00000E+00  1.00000E+00  1.00001  6.3956  6.6267E-06  1.0547E-06  3.1919E-03  2.6939E-04  4.4119E-07  2.9882E-05  1.0031E-10  3.4117E-04  3.4837E-04  4.9568E-07                                                                                                                                                                                                                                                                                                                                                                                                                                                                                                                                                                                                
     780.0000     125.0000   -4975.0000  5.09878E+02  227.257  0.00000E+00  1.00000E+00  1.00001  6.3954  6.3489E-06  1.0105E-06  3.1918E-03  2.6970E-04  4.2270E-07  2.9915E-05  1.0031E-10  3.4146E-04  3.4787E-04  4.7490E-07                                                                                                                                                                                                                                                                                                                                                                                                                                                                                                                                                                                                
     800.0000     125.0000   -4975.0000  5.09877E+02  227.263  0.00000E+00  1.00000E+00  1.00001  6.3925  2.7110E-06  4.3152E-07  3.1913E-03  2.7307E-04  1.8056E-07  3.0258E-05  1.0036E-10  3.4323E-04  3.4399E-04  2.0284E-07                                                                                                                                                                                                                                                                                                                                                                                                                                                                                                                                                                                                
     935.0000     125.0000   -4975.0000  5.09875E+02  227.267  0.00000E+00  1.00000E+00  1.00001  6.3911  9.0313E-07  1.4381E-07  3.1914E-03  2.7469E-04  6.0207E-08  3.0424E-05  1.0039E-10  3.4397E-04  3.4225E-04  6.7633E-08                                                                                                                                                                                                                                                                                                                                                                                                                                                                                                                                                                                                
    1185.0000     125.0000   -4975.0000  5.09870E+02  227.280  0.00000E+00  1.00000E+00  1.00001  6.3903  1.7302E-07  2.7618E-08  3.1932E-03  2.7535E-04  1.1611E-08  3.0490E-05  1.0044E-10  3.4431E-04  3.4152E-04  1.3032E-08                                                                                                                                                                                                                                                                                                                                                                                                                                                                                                                                                                                                
    1435.0000     125.0000   -4975.0000  5.09866E+02  227.292  0.00000E+00  1.00000E+00  1.00001  6.3901  2.5596E-08  4.1574E-09  3.1953E-03  2.7547E-04  1.7980E-09  3.0501E-05  1.0046E-10  3.4436E-04  3.4141E-04  2.0067E-09                                                                                                                                                                                                                                                                                                                                                                                                                                                                                                                                                                                                
     125.0000     125.0000   -4725.0000  4.88404E+02  215.841  0.00000E+00  1.00000E+00  1.00001  6.5493  3.4445E-06  5.4821E-07  1.7591E-03  2.7287E-04  2.2805E-07  3.1549E-05  9.6535E-11  3.3439E-04  3.3899E-04  2.5768E-07                                                                                                                                                                                                                                                                                                                                                                                                                                                                                                                                                                                                
     375.0000     125.0000   -4725.0000  4.88405E+02  215.431  0.00000E+00  1.00000E+00  1.00001  6.5656  1.7286E-05  2.7508E-06  1.7280E-03  2.6042E-04  1.1433E-06  3.0258E-05  9.5336E-11  3.2782E-04  3.5326E-04  1.2928E-06                                                                                                                                                                                                                                                                                                                                                                                                                                                                                                                                                                                                
     625.0000     125.0000   -4725.0000  4.88407E+02  214.727  0.00000E+00  1.00000E+00  1.00001  6.6548  1.0181E-04  1.6202E-05  1.7138E-03  1.8393E-04  6.7321E-06  2.1983E-05  9.3579E-11  2.7425E-04  5.0188E-04  7.6140E-06                                                                                                                                                                                                                                                                                                                                                                                                                                                                                                                                                                                                
     760.0000     125.0000   -4725.0000  4.88406E+02  214.693  0.00000E+00  1.00000E+00  1.00001  6.6547  1.0238E-04  1.6291E-05  1.7105E-03  1.8447E-04  6.7689E-06  2.2046E-05  9.3500E-11  2.7699E-04  4.9622E-04  7.6561E-06                                                                                                                                                                                                                                                                                                                                                                                                                                                                                                                                                                                                
     780.0000     125.0000   -4725.0000  4.88406E+02  214.674  0.00000E+00  1.00000E+00  1.00001  6.6497  9.7833E-05  1.5568E-05  1.7055E-03  1.8875E-04  6.4682E-06  2.2521E-05  9.3616E-11  2.8121E-04  4.8302E-04  7.3163E-06                                                                                                                                                                                                                                                                                                                                                                                                                                                                                                                                                                                                
     800.0000     125.0000   -4725.0000  4.88405E+02  215.214  0.00000E+00  1.00000E+00  1.00001  6.5929  4.5512E-05  7.2425E-06  1.7223E-03  2.3387E-04  3.0101E-06  2.7406E-05  9.4636E-11  3.1034E-04  3.9331E-04  3.4036E-06                                                                                                                                                                                                                                                                                                                                                                                                                                                                                                                                                                                                
     935.0000     125.0000   -4725.0000  4.88404E+02  215.482  0.00000E+00  1.00000E+00  1.00001  6.5659  1.8332E-05  2.9172E-06  1.7331E-03  2.5919E-04  1.2126E-06  3.0119E-05  9.5289E-11  3.2659E-04  3.5549E-04  1.3710E-06                                                                                                                                                                                                                                                                                                                                                                                                                                                                                                                                                                                                
    1185.0000     125.0000   -4725.0000  4.88401E+02  215.965  0.00000E+00  1.00000E+00  1.00001  6.5485  4.6831E-06  7.4532E-07  1.7709E-03  2.7163E-04  3.1008E-07  3.1400E-05  9.6751E-11  3.3369E-04  3.4064E-04  3.5031E-07                                                                                                                                                                                                                                                                                                                                                                                                                                                                                                                                                                                                