Title="TOUGHREACT V3.30-OMP: Aqueous Total & Species Concentrations in mol/kg h2o, Surface & Exchanged Species in mol/kg h2o, Dry blocks in mol/L medium"                                                                                                                                                                                                                                                                                                                                                                                                                                                                                                                                                                                                                                                                       
Variables= "X(m)"   "Y(m)"   "Z(m)"   "P(bar)"     "T(C)"   "SatGas"   "SatLiq"     "aH2O"       "pH"        "t_na+"        "t_cl-"      "t_hco3-"       "t_ca+2"      "t_so4-2"       "t_mg+2"       "t_ba+2"       "t_al+3"     "t_h4sio4"         "t_k+"                                                                                                                                                                                                                                                                                                                                                                                                                                                                                                                                                                     
Zone T= "3.06113718E+03 yr" I=      9J=     10K=     23F=Point 
     125.0000     125.0000   -5425.0000  5.47562E+02  266.786  0.00000E+00  1.00000E+00  1.00001  5.9255  1.0913E-10  1.0144E-10  2.4630E-02  2.5640E-04  9.5321E-11  2.5214E-05  9.6970E-11  3.5229E-04  3.6766E-04  1.0071E-10                                                                                                                                                                                                                                                                                                                                                                                                                                                                                                                                                                                                
     375.0000     125.0000   -5425.0000  5.47563E+02  266.787  0.00000E+00  1.00000E+00  1.00001  5.9255  1.9357E-10  1.1487E-10  2.4631E-02  2.5640E-04  1.0062E-10  2.5214E-05  9.6969E-11  3.5229E-04  3.6766E-04  1.0702E-10                                                                                                                                                                                                                                                                                                                                                                                                                                                                                                                                                                                                
     625.0000     125.0000   -5425.0000  5.47563E+02  266.787  0.00000E+00  1.00000E+00  1.00001  5.9255  1.2446E-09  2.8199E-10  2.4631E-02  2.5640E-04  1.6660E-10  2.5213E-05  9.6968E-11  3.5229E-04  3.6766E-04  1.8558E-10                                                                                                                                                                                                                                                                                                                                                                                                                                                                                                                                                                                                
     760.0000     125.0000   -5425.0000  5.47562E+02  266.787  0.00000E+00  1.00000E+00  1.00001  5.9255  1.2669E-09  2.8553E-10  2.4631E-02  2.5640E-04  1.6799E-10  2.5213E-05  9.6968E-11  3.5229E-04  3.6766E-04  1.8724E-10                                                                                                                                                                                                                                                                                                                                                                                                                                                                                                                                                                                                
     780.0000     125.0000   -5425.0000  5.47562E+02  266.787  0.00000E+00  1.00000E+00  1.00001  5.9255  1.2104E-09  2.7655E-10  2.4631E-02  2.5640E-04  1.6445E-10  2.5213E-05  9.6968E-11  3.5229E-04  3.6766E-04  1.8302E-10                                                                                                                                                                                                                                                                                                                                                                                                                                                                                                                                                                                                
     800.0000     125.0000   -5425.0000  5.47562E+02  266.787  0.00000E+00  1.00000E+00  1.00001  5.9255  5.3828E-10  1.6968E-10  2.4631E-02  2.5640E-04  1.2226E-10  2.5213E-05  9.6969E-11  3.5229E-04  3.6766E-04  1.3278E-10                                                                                                                                                                                                                                                                                                                                                                                                                                                                                                                                                                                                
     935.0000     125.0000   -5425.0000  5.47561E+02  266.787  0.00000E+00  1.00000E+00  1.00001  5.9255  2.0306E-10  1.1637E-10  2.4631E-02  2.5640E-04  1.0122E-10  2.5214E-05  9.6969E-11  3.5229E-04  3.6766E-04  1.0773E-10                                                                                                                                                                                                                                                                                                                                                                                                                                                                                                                                                                                                
    1185.0000     125.0000   -5425.0000  5.47559E+02  266.787  0.00000E+00  1.00000E+00  1.00001  5.9255  1.1252E-10  1.0198E-10  2.4631E-02  2.5640E-04  9.5535E-11  2.5214E-05  9.6971E-11  3.5229E-04  3.6766E-04  1.0096E-10                                                                                                                                                                                                                                                                                                                                                                                                                                                                                                                                                                                                
    1435.0000     125.0000   -5425.0000  5.47557E+02  266.787  0.00000E+00  1.00000E+00  1.00001  5.9255  1.0101E-10  1.0015E-10  2.4631E-02  2.5640E-04  9.4814E-11  2.5214E-05  9.6973E-11  3.5229E-04  3.6766E-04  1.0010E-10                                                                                                                                                                                                                                                                                                                                                                                                                                                                                                                                                                                                
     125.0000     125.0000   -5225.0000  5.31030E+02  238.233  0.00000E+00  1.00000E+00  1.00001  6.2504  1.7369E-09  3.6060E-10  5.6909E-03  2.7204E-04  2.1368E-10  2.9050E-05  1.0158E-10  3.5308E-04  3.4412E-04  2.2247E-10                                                                                                                                                                                                                                                                                                                                                                                                                                                                                                                                                                                                
     375.0000     125.0000   -5225.0000  5.31031E+02  238.231  0.00000E+00  1.00000E+00  1.00001  6.2504  1.3611E-08  2.2505E-09  5.6904E-03  2.7203E-04  1.0188E-09  2.9050E-05  1.0158E-10  3.5308E-04  3.4413E-04  1.1106E-09                                                                                                                                                                                                                                                                                                                                                                                                                                                                                                                                                                                                
     625.0000     125.0000   -5225.0000  5.31032E+02  238.230  0.00000E+00  1.00000E+00  1.00001  6.2505  1.3408E-07  2.1425E-08  5.6901E-03  2.7193E-04  9.1903E-09  2.9039E-05  1.0158E-10  3.5303E-04  3.4424E-04  1.0121E-08                                                                                                                                                                                                                                                                                                                                                                                                                                                                                                                                                                                                
     760.0000     125.0000   -5225.0000  5.31031E+02  238.231  0.00000E+00  1.00000E+00  1.00001  6.2505  1.3596E-07  2.1726E-08  5.6904E-03  2.7193E-04  9.3183E-09  2.9039E-05  1.0158E-10  3.5303E-04  3.4424E-04  1.0262E-08                                                                                                                                                                                                                                                                                                                                                                                                                                                                                                                                                                                                
     780.0000     125.0000   -5225.0000  5.31031E+02  238.232  0.00000E+00  1.00000E+00  1.00001  6.2505  1.2940E-07  2.0681E-08  5.6905E-03  2.7193E-04  8.8732E-09  2.9040E-05  1.0158E-10  3.5303E-04  3.4423E-04  9.7713E-09                                                                                                                                                                                                                                                                                                                                                                                                                                                                                                                                                                                                
     800.0000     125.0000   -5225.0000  5.31030E+02  238.232  0.00000E+00  1.00000E+00  1.00001  6.2504  5.3147E-08  8.5436E-09  5.6905E-03  2.7200E-04  3.7006E-09  2.9046E-05  1.0158E-10  3.5307E-04  3.4416E-04  4.0677E-09                                                                                                                                                                                                                                                                                                                                                                                                                                                                                                                                                                                                
     935.0000     125.0000   -5225.0000  5.31029E+02  238.233  0.00000E+00  1.00000E+00  1.00001  6.2504  1.4767E-08  2.4347E-09  5.6909E-03  2.7203E-04  1.0973E-09  2.9049E-05  1.0158E-10  3.5308E-04  3.4413E-04  1.1971E-09                                                                                                                                                                                                                                                                                                                                                                                                                                                                                                                                                                                                
    1185.0000     125.0000   -5225.0000  5.31026E+02  238.238  0.00000E+00  1.00000E+00  1.00001  6.2503  2.2915E-09  4.4887E-10  5.6923E-03  2.7204E-04  2.5129E-10  2.9050E-05  1.0158E-10  3.5308E-04  3.4412E-04  2.6395E-10                                                                                                                                                                                                                                                                                                                                                                                                                                                                                                                                                                                                
    1435.0000     125.0000   -5225.0000  5.31024E+02  238.243  0.00000E+00  1.00000E+00  1.00001  6.2502  3.2381E-10  1.3567E-10  5.6937E-03  2.7204E-04  1.1788E-10  2.9049E-05  1.0158E-10  3.5309E-04  3.4412E-04  1.1678E-10                                                                                                                                                                                                                                                                                                                                                                                                                                                                                                                                                                                                
     125.0000     125.0000   -4975.0000  5.09830E+02  227.287  0.00000E+00  1.00000E+00  1.00001  6.3903  1.2999E-07  2.0771E-08  3.1945E-03  2.7526E-04  8.7717E-09  3.0479E-05  1.0061E-10  3.4494E-04  3.4097E-04  9.8139E-09                                                                                                                                                                                                                                                                                                                                                                                                                                                                                                                                                                                                
     375.0000     125.0000   -4975.0000  5.09833E+02  227.279  0.00000E+00  1.00000E+00  1.00001  6.3910  8.4445E-07  1.3447E-07  3.1934E-03  2.7462E-04  5.6463E-08  3.0414E-05  1.0057E-10  3.4464E-04  3.4165E-04  6.3246E-08                                                                                                                                                                                                                                                                                                                                                                                                                                                                                                                                                                                                
     625.0000     125.0000   -4975.0000  5.09836E+02  227.270  0.00000E+00  1.00000E+00  1.00001  6.3956  6.5290E-06  1.0391E-06  3.1941E-03  2.6926E-04  4.3590E-07  2.9868E-05  1.0048E-10  3.4159E-04  3.4804E-04  4.8838E-07                                                                                                                                                                                                                                                                                                                                                                                                                                                                                                                                                                                                
     760.0000     125.0000   -4975.0000  5.09834E+02  227.272  0.00000E+00  1.00000E+00  1.00001  6.3955  6.5987E-06  1.0502E-06  3.1944E-03  2.6928E-04  4.4056E-07  2.9869E-05  1.0048E-10  3.4177E-04  3.4784E-04  4.9359E-07                                                                                                                                                                                                                                                                                                                                                                                                                                                                                                                                                                                                
     780.0000     125.0000   -4975.0000  5.09834E+02  227.272  0.00000E+00  1.00000E+00  1.00001  6.3952  6.2853E-06  1.0004E-06  3.1942E-03  2.6962E-04  4.1964E-07  2.9905E-05  1.0048E-10  3.4208E-04  3.4732E-04  4.7015E-07                                                                                                                                                                                                                                                                                                                                                                                                                                                                                                                                                                                                
     800.0000     125.0000   -4975.0000  5.09834E+02  227.278  0.00000E+00  1.00000E+00  1.00001  6.3924  2.7789E-06  4.4233E-07  3.1939E-03  2.7287E-04  1.8561E-07  3.0236E-05  1.0053E-10  3.4380E-04  3.4356E-04  2.0792E-07                                                                                                                                                                                                                                                                                                                                                                                                                                                                                                                                                                                                
     935.0000     125.0000   -4975.0000  5.09831E+02  227.283  0.00000E+00  1.00000E+00  1.00001  6.3910  9.0255E-07  1.4372E-07  3.1940E-03  2.7455E-04  6.0343E-08  3.0408E-05  1.0056E-10  3.4459E-04  3.4174E-04  6.7591E-08                                                                                                                                                                                                                                                                                                                                                                                                                                                                                                                                                                                                
    1185.0000     125.0000   -4975.0000  5.09826E+02  227.296  0.00000E+00  1.00000E+00  1.00001  6.3902  1.7336E-07  2.7673E-08  3.1960E-03  2.7521E-04  1.1668E-08  3.0474E-05  1.0062E-10  3.4494E-04  3.4101E-04  1.3057E-08                                                                                                                                                                                                                                                                                                                                                                                                                                                                                                                                                                                                
    1435.0000     125.0000   -4975.0000  5.09822E+02  227.310  0.00000E+00  1.00000E+00  1.00001  6.3900  2.5666E-08  4.1686E-09  3.1983E-03  2.7533E-04  1.8079E-09  3.0484E-05  1.0064E-10  3.4499E-04  3.4090E-04  2.0120E-09                                                                                                                                                                                                                                                                                                                                                                                                                                                                                                                                                                                                
     125.0000     125.0000   -4725.0000  4.88360E+02  215.861  0.00000E+00  1.00000E+00  1.00001  6.5490  3.4315E-06  5.4614E-07  1.7609E-03  2.7283E-04  2.2739E-07  3.1542E-05  9.6625E-11  3.3463E-04  3.3881E-04  2.5671E-07                                                                                                                                                                                                                                                                                                                                                                                                                                                                                                                                                                                                
     375.0000     125.0000   -4725.0000  4.88361E+02  215.449  0.00000E+00  1.00000E+00  1.00001  6.5653  1.7234E-05  2.7425E-06  1.7296E-03  2.6042E-04  1.1407E-06  3.0256E-05  9.5420E-11  3.2803E-04  3.5307E-04  1.2889E-06                                                                                                                                                                                                                                                                                                                                                                                                                                                                                                                                                                                                
     625.0000     125.0000   -4725.0000  4.88363E+02  214.741  0.00000E+00  1.00000E+00  1.00001  6.6543  1.0142E-04  1.6138E-05  1.7148E-03  1.8420E-04  6.7085E-06  2.2012E-05  9.3643E-11  2.7448E-04  5.0111E-04  7.5842E-06                                                                                                                                                                                                                                                                                                                                                                                                                                                                                                                                                                                                
     760.0000     125.0000   -4725.0000  4.88362E+02  214.707  0.00000E+00  1.00000E+00  1.00001  6.6541  1.0193E-04  1.6221E-05  1.7115E-03  1.8477E-04  6.7424E-06  2.2079E-05  9.3563E-11  2.7724E-04  4.9536E-04  7.6229E-06                                                                                                                                                                                                                                                                                                                                                                                                                                                                                                                                                                                                
     780.0000     125.0000   -4725.0000  4.88362E+02  214.687  0.00000E+00  1.00000E+00  1.00001  6.6487  9.6880E-05  1.5417E-05  1.7061E-03  1.8945E-04  6.4078E-06  2.2596E-05  9.3686E-11  2.8165E-04  4.8137E-04  7.2451E-06                                                                                                                                                                                                                                                                                                                                                                                                                                                                                                                                                                                                
     800.0000     125.0000   -4725.0000  4.88362E+02  215.230  0.00000E+00  1.00000E+00  1.00001  6.5934  4.6204E-05  7.3527E-06  1.7241E-03  2.3317E-04  3.0578E-06  2.7328E-05  9.4699E-11  3.1000E-04  3.9436E-04  3.4554E-06                                                                                                                                                                                                                                                                                                                                                                                                                                                                                                                                                                                                
     935.0000     125.0000   -4725.0000  4.88360E+02  215.500  0.00000E+00  1.00000E+00  1.00001  6.5656  1.8264E-05  2.9065E-06  1.7347E-03  2.5920E-04  1.2090E-06  3.0118E-05  9.5373E-11  3.2682E-04  3.5526E-04  1.3659E-06                                                                                                                                                                                                                                                                                                                                                                                                                                                                                                                                                                                                
    1185.0000     125.0000   -4725.0000  4.88357E+02  215.985  0.00000E+00  1.00000E+00  1.00001  6.5483  4.6671E-06  7.4277E-07  1.7727E-03  2.7160E-04  3.0929E-07  3.1394E-05  9.6841E-11  3.3392E-04  3.4045E-04  3.4911E-07                                                                                                                                                                                                                                                                                                                                                                                                                                                                                                                                                                                                