Title="TOUGHREACT V3.30-OMP: Aqueous Total & Species Concentrations in mol/kg h2o, Surface & Exchanged Species in mol/kg h2o, Dry blocks in mol/L medium"                                                                                                                                                                                                                                                                                                                                                                                                                                                                                                                                                                                                                                                                       
Variables= "X(m)"   "Y(m)"   "Z(m)"   "P(bar)"     "T(C)"   "SatGas"   "SatLiq"     "aH2O"       "pH"        "t_na+"        "t_cl-"      "t_hco3-"       "t_ca+2"      "t_so4-2"       "t_mg+2"       "t_ba+2"       "t_al+3"     "t_h4sio4"         "t_k+"                                                                                                                                                                                                                                                                                                                                                                                                                                                                                                                                                                     
Zone T= "2.63967627E+03 yr" I=      9J=     10K=     23F=Point 
     125.0000     125.0000   -5425.0000  5.47616E+02  264.042  0.00000E+00  1.00000E+00  1.00001  5.9540  1.0895E-10  1.0142E-10  2.1482E-02  2.5841E-04  9.6523E-11  2.5604E-05  9.7673E-11  3.5281E-04  3.6472E-04  1.0070E-10                                                                                                                                                                                                                                                                                                                                                                                                                                                                                                                                                                                                
     375.0000     125.0000   -5425.0000  5.47616E+02  264.043  0.00000E+00  1.00000E+00  1.00001  5.9540  1.9226E-10  1.1467E-10  2.1483E-02  2.5841E-04  1.0182E-10  2.5604E-05  9.7673E-11  3.5281E-04  3.6473E-04  1.0692E-10                                                                                                                                                                                                                                                                                                                                                                                                                                                                                                                                                                                                
     625.0000     125.0000   -5425.0000  5.47616E+02  264.043  0.00000E+00  1.00000E+00  1.00001  5.9540  1.2324E-09  2.8010E-10  2.1483E-02  2.5841E-04  1.6789E-10  2.5604E-05  9.7672E-11  3.5281E-04  3.6473E-04  1.8468E-10                                                                                                                                                                                                                                                                                                                                                                                                                                                                                                                                                                                                
     760.0000     125.0000   -5425.0000  5.47616E+02  264.043  0.00000E+00  1.00000E+00  1.00001  5.9540  1.2549E-09  2.8367E-10  2.1483E-02  2.5841E-04  1.6932E-10  2.5604E-05  9.7672E-11  3.5281E-04  3.6473E-04  1.8636E-10                                                                                                                                                                                                                                                                                                                                                                                                                                                                                                                                                                                                
     780.0000     125.0000   -5425.0000  5.47616E+02  264.043  0.00000E+00  1.00000E+00  1.00001  5.9540  1.2025E-09  2.7535E-10  2.1483E-02  2.5841E-04  1.6599E-10  2.5604E-05  9.7672E-11  3.5281E-04  3.6473E-04  1.8245E-10                                                                                                                                                                                                                                                                                                                                                                                                                                                                                                                                                                                                
     800.0000     125.0000   -5425.0000  5.47615E+02  264.043  0.00000E+00  1.00000E+00  1.00001  5.9540  5.2790E-10  1.6805E-10  2.1483E-02  2.5841E-04  1.2314E-10  2.5604E-05  9.7672E-11  3.5281E-04  3.6473E-04  1.3201E-10                                                                                                                                                                                                                                                                                                                                                                                                                                                                                                                                                                                                
     935.0000     125.0000   -5425.0000  5.47614E+02  264.043  0.00000E+00  1.00000E+00  1.00001  5.9540  2.0161E-10  1.1616E-10  2.1483E-02  2.5841E-04  1.0241E-10  2.5604E-05  9.7673E-11  3.5281E-04  3.6473E-04  1.0762E-10                                                                                                                                                                                                                                                                                                                                                                                                                                                                                                                                                                                                
    1185.0000     125.0000   -5425.0000  5.47612E+02  264.043  0.00000E+00  1.00000E+00  1.00001  5.9540  1.1228E-10  1.0195E-10  2.1483E-02  2.5841E-04  9.6735E-11  2.5604E-05  9.7674E-11  3.5281E-04  3.6473E-04  1.0095E-10                                                                                                                                                                                                                                                                                                                                                                                                                                                                                                                                                                                                
    1435.0000     125.0000   -5425.0000  5.47610E+02  264.043  0.00000E+00  1.00000E+00  1.00001  5.9540  1.0097E-10  1.0016E-10  2.1483E-02  2.5841E-04  9.6019E-11  2.5604E-05  9.7676E-11  3.5281E-04  3.6472E-04  1.0010E-10                                                                                                                                                                                                                                                                                                                                                                                                                                                                                                                                                                                                
     125.0000     125.0000   -5225.0000  5.31050E+02  238.214  0.00000E+00  1.00000E+00  1.00001  6.2505  1.7334E-09  3.6002E-10  5.6852E-03  2.7219E-04  2.1268E-10  2.9067E-05  1.0137E-10  3.5242E-04  3.4465E-04  2.2221E-10                                                                                                                                                                                                                                                                                                                                                                                                                                                                                                                                                                                                
     375.0000     125.0000   -5225.0000  5.31051E+02  238.213  0.00000E+00  1.00000E+00  1.00001  6.2505  1.3593E-08  2.2477E-09  5.6847E-03  2.7218E-04  1.0140E-09  2.9066E-05  1.0137E-10  3.5242E-04  3.4466E-04  1.1093E-09                                                                                                                                                                                                                                                                                                                                                                                                                                                                                                                                                                                                
     625.0000     125.0000   -5225.0000  5.31052E+02  238.212  0.00000E+00  1.00000E+00  1.00001  6.2506  1.3412E-07  2.1432E-08  5.6846E-03  2.7207E-04  9.1601E-09  2.9055E-05  1.0137E-10  3.5237E-04  3.4478E-04  1.0124E-08                                                                                                                                                                                                                                                                                                                                                                                                                                                                                                                                                                                                
     760.0000     125.0000   -5225.0000  5.31051E+02  238.213  0.00000E+00  1.00000E+00  1.00001  6.2506  1.3606E-07  2.1740E-08  5.6849E-03  2.7207E-04  9.2908E-09  2.9055E-05  1.0137E-10  3.5237E-04  3.4478E-04  1.0269E-08                                                                                                                                                                                                                                                                                                                                                                                                                                                                                                                                                                                                
     780.0000     125.0000   -5225.0000  5.31051E+02  238.213  0.00000E+00  1.00000E+00  1.00001  6.2506  1.2990E-07  2.0760E-08  5.6849E-03  2.7208E-04  8.8747E-09  2.9056E-05  1.0137E-10  3.5237E-04  3.4477E-04  9.8084E-09                                                                                                                                                                                                                                                                                                                                                                                                                                                                                                                                                                                                
     800.0000     125.0000   -5225.0000  5.31050E+02  238.213  0.00000E+00  1.00000E+00  1.00001  6.2505  5.2502E-08  8.4406E-09  5.6849E-03  2.7215E-04  3.6435E-09  2.9062E-05  1.0137E-10  3.5240E-04  3.4470E-04  4.0194E-09                                                                                                                                                                                                                                                                                                                                                                                                                                                                                                                                                                                                
     935.0000     125.0000   -5225.0000  5.31049E+02  238.215  0.00000E+00  1.00000E+00  1.00001  6.2505  1.4751E-08  2.4319E-09  5.6853E-03  2.7218E-04  1.0922E-09  2.9065E-05  1.0137E-10  3.5242E-04  3.4467E-04  1.1958E-09                                                                                                                                                                                                                                                                                                                                                                                                                                                                                                                                                                                                
    1185.0000     125.0000   -5225.0000  5.31046E+02  238.219  0.00000E+00  1.00000E+00  1.00001  6.2504  2.2851E-09  4.4783E-10  5.6865E-03  2.7219E-04  2.4996E-10  2.9066E-05  1.0137E-10  3.5242E-04  3.4466E-04  2.6347E-10                                                                                                                                                                                                                                                                                                                                                                                                                                                                                                                                                                                                
    1435.0000     125.0000   -5225.0000  5.31044E+02  238.223  0.00000E+00  1.00000E+00  1.00001  6.2504  3.2277E-10  1.3550E-10  5.6878E-03  2.7219E-04  1.1740E-10  2.9066E-05  1.0137E-10  3.5242E-04  3.4466E-04  1.1670E-10                                                                                                                                                                                                                                                                                                                                                                                                                                                                                                                                                                                                
     125.0000     125.0000   -4975.0000  5.09850E+02  227.279  0.00000E+00  1.00000E+00  1.00001  6.3904  1.2994E-07  2.0763E-08  3.1931E-03  2.7533E-04  8.7557E-09  3.0487E-05  1.0053E-10  3.4463E-04  3.4122E-04  9.8102E-09                                                                                                                                                                                                                                                                                                                                                                                                                                                                                                                                                                                                
     375.0000     125.0000   -4975.0000  5.09853E+02  227.272  0.00000E+00  1.00000E+00  1.00001  6.3910  8.4394E-07  1.3439E-07  3.1921E-03  2.7469E-04  5.6347E-08  3.0423E-05  1.0048E-10  3.4433E-04  3.4191E-04  6.3208E-08                                                                                                                                                                                                                                                                                                                                                                                                                                                                                                                                                                                                
     625.0000     125.0000   -4975.0000  5.09856E+02  227.263  0.00000E+00  1.00000E+00  1.00001  6.3956  6.5406E-06  1.0410E-06  3.1929E-03  2.6932E-04  4.3607E-07  2.9874E-05  1.0039E-10  3.4129E-04  3.4829E-04  4.8924E-07                                                                                                                                                                                                                                                                                                                                                                                                                                                                                                                                                                                                
     760.0000     125.0000   -4975.0000  5.09854E+02  227.264  0.00000E+00  1.00000E+00  1.00001  6.3956  6.6128E-06  1.0525E-06  3.1931E-03  2.6933E-04  4.4088E-07  2.9876E-05  1.0039E-10  3.4147E-04  3.4811E-04  4.9464E-07                                                                                                                                                                                                                                                                                                                                                                                                                                                                                                                                                                                                
     780.0000     125.0000   -4975.0000  5.09854E+02  227.264  0.00000E+00  1.00000E+00  1.00001  6.3953  6.3168E-06  1.0054E-06  3.1930E-03  2.6966E-04  4.2115E-07  2.9910E-05  1.0039E-10  3.4177E-04  3.4759E-04  4.7251E-07                                                                                                                                                                                                                                                                                                                                                                                                                                                                                                                                                                                                
     800.0000     125.0000   -4975.0000  5.09853E+02  227.270  0.00000E+00  1.00000E+00  1.00001  6.3925  2.7455E-06  4.3700E-07  3.1926E-03  2.7297E-04  1.8311E-07  3.0247E-05  1.0044E-10  3.4351E-04  3.4378E-04  2.0542E-07                                                                                                                                                                                                                                                                                                                                                                                                                                                                                                                                                                                                
     935.0000     125.0000   -4975.0000  5.09851E+02  227.275  0.00000E+00  1.00000E+00  1.00001  6.3910  9.0284E-07  1.4376E-07  3.1927E-03  2.7462E-04  6.0275E-08  3.0416E-05  1.0048E-10  3.4428E-04  3.4200E-04  6.7613E-08                                                                                                                                                                                                                                                                                                                                                                                                                                                                                                                                                                                                
    1185.0000     125.0000   -4975.0000  5.09846E+02  227.288  0.00000E+00  1.00000E+00  1.00001  6.3903  1.7319E-07  2.7646E-08  3.1946E-03  2.7528E-04  1.1640E-08  3.0482E-05  1.0053E-10  3.4462E-04  3.4127E-04  1.3045E-08                                                                                                                                                                                                                                                                                                                                                                                                                                                                                                                                                                                                
    1435.0000     125.0000   -4975.0000  5.09842E+02  227.301  0.00000E+00  1.00000E+00  1.00001  6.3900  2.5631E-08  4.1631E-09  3.1968E-03  2.7540E-04  1.8030E-09  3.0493E-05  1.0055E-10  3.4468E-04  3.4115E-04  2.0094E-09                                                                                                                                                                                                                                                                                                                                                                                                                                                                                                                                                                                                
     125.0000     125.0000   -4725.0000  4.88380E+02  215.851  0.00000E+00  1.00000E+00  1.00001  6.5491  3.4380E-06  5.4718E-07  1.7600E-03  2.7285E-04  2.2772E-07  3.1545E-05  9.6580E-11  3.3451E-04  3.3890E-04  2.5720E-07                                                                                                                                                                                                                                                                                                                                                                                                                                                                                                                                                                                                
     375.0000     125.0000   -4725.0000  4.88381E+02  215.440  0.00000E+00  1.00000E+00  1.00001  6.5654  1.7260E-05  2.7467E-06  1.7288E-03  2.6042E-04  1.1420E-06  3.0257E-05  9.5378E-11  3.2793E-04  3.5317E-04  1.2908E-06                                                                                                                                                                                                                                                                                                                                                                                                                                                                                                                                                                                                
     625.0000     125.0000   -4725.0000  4.88383E+02  214.734  0.00000E+00  1.00000E+00  1.00001  6.6546  1.0162E-04  1.6170E-05  1.7143E-03  1.8407E-04  6.7203E-06  2.1998E-05  9.3611E-11  2.7436E-04  5.0149E-04  7.5992E-06                                                                                                                                                                                                                                                                                                                                                                                                                                                                                                                                                                                                
     760.0000     125.0000   -4725.0000  4.88382E+02  214.700  0.00000E+00  1.00000E+00  1.00001  6.6544  1.0216E-04  1.6256E-05  1.7110E-03  1.8462E-04  6.7557E-06  2.2062E-05  9.3531E-11  2.7711E-04  4.9579E-04  7.6396E-06                                                                                                                                                                                                                                                                                                                                                                                                                                                                                                                                                                                                
     780.0000     125.0000   -4725.0000  4.88382E+02  214.680  0.00000E+00  1.00000E+00  1.00001  6.6492  9.7353E-05  1.5492E-05  1.7058E-03  1.8910E-04  6.4378E-06  2.2559E-05  9.3651E-11  2.8143E-04  4.8219E-04  7.2804E-06                                                                                                                                                                                                                                                                                                                                                                                                                                                                                                                                                                                                
     800.0000     125.0000   -4725.0000  4.88381E+02  215.222  0.00000E+00  1.00000E+00  1.00001  6.5931  4.5865E-05  7.2987E-06  1.7232E-03  2.3351E-04  3.0344E-06  2.7366E-05  9.4667E-11  3.1017E-04  3.9384E-04  3.4300E-06                                                                                                                                                                                                                                                                                                                                                                                                                                                                                                                                                                                                
     935.0000     125.0000   -4725.0000  4.88380E+02  215.491  0.00000E+00  1.00000E+00  1.00001  6.5658  1.8298E-05  2.9119E-06  1.7339E-03  2.5920E-04  1.2108E-06  3.0119E-05  9.5331E-11  3.2670E-04  3.5538E-04  1.3685E-06                                                                                                                                                                                                                                                                                                                                                                                                                                                                                                                                                                                                
    1185.0000     125.0000   -4725.0000  4.88377E+02  215.975  0.00000E+00  1.00000E+00  1.00001  6.5484  4.6752E-06  7.4406E-07  1.7718E-03  2.7161E-04  3.0970E-07  3.1397E-05  9.6796E-11  3.3381E-04  3.4055E-04  3.4972E-07                                                                                                                                                                                                                                                                                                                                                                                                                                                                                                                                                                                                