Title="TOUGHREACT V3.30-OMP: Aqueous Total & Species Concentrations in mol/kg h2o, Surface & Exchanged Species in mol/kg h2o, Dry blocks in mol/L medium"                                                                                                                                                                                                                                                                                                                                                                                                                                                                                                                                                                                                                                                                       
Variables= "X(m)"   "Y(m)"   "Z(m)"   "P(bar)"     "T(C)"   "SatGas"   "SatLiq"     "aH2O"       "pH"        "t_na+"        "t_cl-"      "t_hco3-"       "t_ca+2"      "t_so4-2"       "t_mg+2"       "t_ba+2"       "t_al+3"     "t_h4sio4"         "t_k+"                                                                                                                                                                                                                                                                                                                                                                                                                                                                                                                                                                     
Zone T= "2.95656417E+03 yr" I=      9J=     10K=     23F=Point 
     125.0000     125.0000   -5425.0000  5.47575E+02  266.105  0.00000E+00  1.00000E+00  1.00001  5.9325  1.0908E-10  1.0143E-10  2.3810E-02  2.5691E-04  9.5638E-11  2.5311E-05  9.7155E-11  3.5244E-04  3.6690E-04  1.0070E-10                                                                                                                                                                                                                                                                                                                                                                                                                                                                                                                                                                                                
     375.0000     125.0000   -5425.0000  5.47576E+02  266.106  0.00000E+00  1.00000E+00  1.00001  5.9325  1.9325E-10  1.1482E-10  2.3811E-02  2.5691E-04  1.0094E-10  2.5311E-05  9.7154E-11  3.5244E-04  3.6690E-04  1.0699E-10                                                                                                                                                                                                                                                                                                                                                                                                                                                                                                                                                                                                
     625.0000     125.0000   -5425.0000  5.47576E+02  266.106  0.00000E+00  1.00000E+00  1.00001  5.9325  1.2416E-09  2.8152E-10  2.3812E-02  2.5691E-04  1.6695E-10  2.5310E-05  9.7153E-11  3.5244E-04  3.6690E-04  1.8536E-10                                                                                                                                                                                                                                                                                                                                                                                                                                                                                                                                                                                                
     760.0000     125.0000   -5425.0000  5.47575E+02  266.106  0.00000E+00  1.00000E+00  1.00001  5.9325  1.2639E-09  2.8507E-10  2.3812E-02  2.5691E-04  1.6835E-10  2.5310E-05  9.7154E-11  3.5244E-04  3.6690E-04  1.8702E-10                                                                                                                                                                                                                                                                                                                                                                                                                                                                                                                                                                                                
     780.0000     125.0000   -5425.0000  5.47575E+02  266.106  0.00000E+00  1.00000E+00  1.00001  5.9325  1.2084E-09  2.7625E-10  2.3811E-02  2.5691E-04  1.6486E-10  2.5310E-05  9.7154E-11  3.5244E-04  3.6690E-04  1.8288E-10                                                                                                                                                                                                                                                                                                                                                                                                                                                                                                                                                                                                
     800.0000     125.0000   -5425.0000  5.47575E+02  266.106  0.00000E+00  1.00000E+00  1.00001  5.9325  5.3570E-10  1.6927E-10  2.3811E-02  2.5691E-04  1.2250E-10  2.5311E-05  9.7154E-11  3.5244E-04  3.6690E-04  1.3259E-10                                                                                                                                                                                                                                                                                                                                                                                                                                                                                                                                                                                                
     935.0000     125.0000   -5425.0000  5.47574E+02  266.106  0.00000E+00  1.00000E+00  1.00001  5.9325  2.0270E-10  1.1632E-10  2.3811E-02  2.5691E-04  1.0153E-10  2.5311E-05  9.7155E-11  3.5244E-04  3.6690E-04  1.0770E-10                                                                                                                                                                                                                                                                                                                                                                                                                                                                                                                                                                                                
    1185.0000     125.0000   -5425.0000  5.47571E+02  266.106  0.00000E+00  1.00000E+00  1.00001  5.9325  1.1246E-10  1.0197E-10  2.3811E-02  2.5691E-04  9.5851E-11  2.5311E-05  9.7156E-11  3.5244E-04  3.6690E-04  1.0096E-10                                                                                                                                                                                                                                                                                                                                                                                                                                                                                                                                                                                                
    1435.0000     125.0000   -5425.0000  5.47570E+02  266.106  0.00000E+00  1.00000E+00  1.00001  5.9325  1.0100E-10  1.0015E-10  2.3811E-02  2.5691E-04  9.5131E-11  2.5311E-05  9.7158E-11  3.5244E-04  3.6690E-04  1.0010E-10                                                                                                                                                                                                                                                                                                                                                                                                                                                                                                                                                                                                
     125.0000     125.0000   -5225.0000  5.31035E+02  238.228  0.00000E+00  1.00000E+00  1.00001  6.2504  1.7361E-09  3.6046E-10  5.6894E-03  2.7208E-04  2.1343E-10  2.9054E-05  1.0153E-10  3.5292E-04  3.4425E-04  2.2241E-10                                                                                                                                                                                                                                                                                                                                                                                                                                                                                                                                                                                                
     375.0000     125.0000   -5225.0000  5.31036E+02  238.227  0.00000E+00  1.00000E+00  1.00001  6.2504  1.3606E-08  2.2498E-09  5.6889E-03  2.7207E-04  1.0176E-09  2.9054E-05  1.0153E-10  3.5291E-04  3.4426E-04  1.1102E-09                                                                                                                                                                                                                                                                                                                                                                                                                                                                                                                                                                                                
     625.0000     125.0000   -5225.0000  5.31036E+02  238.226  0.00000E+00  1.00000E+00  1.00001  6.2505  1.3409E-07  2.1427E-08  5.6887E-03  2.7196E-04  9.1828E-09  2.9043E-05  1.0152E-10  3.5286E-04  3.4437E-04  1.0122E-08                                                                                                                                                                                                                                                                                                                                                                                                                                                                                                                                                                                                
     760.0000     125.0000   -5225.0000  5.31035E+02  238.227  0.00000E+00  1.00000E+00  1.00001  6.2505  1.3599E-07  2.1729E-08  5.6890E-03  2.7196E-04  9.3115E-09  2.9043E-05  1.0152E-10  3.5287E-04  3.4437E-04  1.0264E-08                                                                                                                                                                                                                                                                                                                                                                                                                                                                                                                                                                                                
     780.0000     125.0000   -5225.0000  5.31035E+02  238.227  0.00000E+00  1.00000E+00  1.00001  6.2505  1.2953E-07  2.0701E-08  5.6890E-03  2.7197E-04  8.8736E-09  2.9044E-05  1.0153E-10  3.5287E-04  3.4436E-04  9.7804E-09                                                                                                                                                                                                                                                                                                                                                                                                                                                                                                                                                                                                
     800.0000     125.0000   -5225.0000  5.31035E+02  238.227  0.00000E+00  1.00000E+00  1.00001  6.2505  5.2988E-08  8.5182E-09  5.6891E-03  2.7204E-04  3.6865E-09  2.9050E-05  1.0153E-10  3.5290E-04  3.4429E-04  4.0558E-09                                                                                                                                                                                                                                                                                                                                                                                                                                                                                                                                                                                                
     935.0000     125.0000   -5225.0000  5.31034E+02  238.228  0.00000E+00  1.00000E+00  1.00001  6.2504  1.4763E-08  2.4340E-09  5.6894E-03  2.7207E-04  1.0960E-09  2.9053E-05  1.0153E-10  3.5291E-04  3.4426E-04  1.1968E-09                                                                                                                                                                                                                                                                                                                                                                                                                                                                                                                                                                                                
    1185.0000     125.0000   -5225.0000  5.31031E+02  238.233  0.00000E+00  1.00000E+00  1.00001  6.2503  2.2899E-09  4.4861E-10  5.6908E-03  2.7208E-04  2.5096E-10  2.9054E-05  1.0153E-10  3.5292E-04  3.4425E-04  2.6383E-10                                                                                                                                                                                                                                                                                                                                                                                                                                                                                                                                                                                                
    1435.0000     125.0000   -5225.0000  5.31029E+02  238.237  0.00000E+00  1.00000E+00  1.00001  6.2503  3.2356E-10  1.3563E-10  5.6922E-03  2.7208E-04  1.1776E-10  2.9053E-05  1.0153E-10  3.5292E-04  3.4425E-04  1.1676E-10                                                                                                                                                                                                                                                                                                                                                                                                                                                                                                                                                                                                
     125.0000     125.0000   -4975.0000  5.09835E+02  227.285  0.00000E+00  1.00000E+00  1.00001  6.3903  1.2998E-07  2.0769E-08  3.1941E-03  2.7527E-04  8.7677E-09  3.0481E-05  1.0059E-10  3.4487E-04  3.4103E-04  9.8130E-09                                                                                                                                                                                                                                                                                                                                                                                                                                                                                                                                                                                                
     375.0000     125.0000   -4975.0000  5.09838E+02  227.278  0.00000E+00  1.00000E+00  1.00001  6.3910  8.4432E-07  1.3445E-07  3.1931E-03  2.7463E-04  5.6434E-08  3.0416E-05  1.0055E-10  3.4456E-04  3.4172E-04  6.3237E-08                                                                                                                                                                                                                                                                                                                                                                                                                                                                                                                                                                                                
     625.0000     125.0000   -4975.0000  5.09841E+02  227.268  0.00000E+00  1.00000E+00  1.00001  6.3956  6.5319E-06  1.0396E-06  3.1938E-03  2.6928E-04  4.3595E-07  2.9869E-05  1.0045E-10  3.4151E-04  3.4810E-04  4.8859E-07                                                                                                                                                                                                                                                                                                                                                                                                                                                                                                                                                                                                
     760.0000     125.0000   -4975.0000  5.09839E+02  227.270  0.00000E+00  1.00000E+00  1.00001  6.3955  6.6022E-06  1.0508E-06  3.1941E-03  2.6929E-04  4.4064E-07  2.9871E-05  1.0045E-10  3.4170E-04  3.4791E-04  4.9385E-07                                                                                                                                                                                                                                                                                                                                                                                                                                                                                                                                                                                                
     780.0000     125.0000   -4975.0000  5.09839E+02  227.270  0.00000E+00  1.00000E+00  1.00001  6.3953  6.2931E-06  1.0016E-06  3.1939E-03  2.6963E-04  4.2001E-07  2.9906E-05  1.0046E-10  3.4200E-04  3.4738E-04  4.7073E-07                                                                                                                                                                                                                                                                                                                                                                                                                                                                                                                                                                                                
     800.0000     125.0000   -4975.0000  5.09838E+02  227.276  0.00000E+00  1.00000E+00  1.00001  6.3924  2.7707E-06  4.4102E-07  3.1935E-03  2.7289E-04  1.8499E-07  3.0238E-05  1.0051E-10  3.4373E-04  3.4361E-04  2.0730E-07                                                                                                                                                                                                                                                                                                                                                                                                                                                                                                                                                                                                
     935.0000     125.0000   -4975.0000  5.09836E+02  227.281  0.00000E+00  1.00000E+00  1.00001  6.3910  9.0262E-07  1.4373E-07  3.1937E-03  2.7457E-04  6.0326E-08  3.0410E-05  1.0054E-10  3.4451E-04  3.4180E-04  6.7597E-08                                                                                                                                                                                                                                                                                                                                                                                                                                                                                                                                                                                                
    1185.0000     125.0000   -4975.0000  5.09831E+02  227.294  0.00000E+00  1.00000E+00  1.00001  6.3903  1.7332E-07  2.7666E-08  3.1957E-03  2.7523E-04  1.1661E-08  3.0476E-05  1.0060E-10  3.4486E-04  3.4108E-04  1.3054E-08                                                                                                                                                                                                                                                                                                                                                                                                                                                                                                                                                                                                
    1435.0000     125.0000   -4975.0000  5.09827E+02  227.308  0.00000E+00  1.00000E+00  1.00001  6.3900  2.5657E-08  4.1673E-09  3.1979E-03  2.7535E-04  1.8067E-09  3.0486E-05  1.0061E-10  3.4491E-04  3.4096E-04  2.0113E-09                                                                                                                                                                                                                                                                                                                                                                                                                                                                                                                                                                                                
     125.0000     125.0000   -4725.0000  4.88364E+02  215.858  0.00000E+00  1.00000E+00  1.00001  6.5490  3.4331E-06  5.4640E-07  1.7607E-03  2.7283E-04  2.2747E-07  3.1543E-05  9.6614E-11  3.3460E-04  3.3883E-04  2.5683E-07                                                                                                                                                                                                                                                                                                                                                                                                                                                                                                                                                                                                
     375.0000     125.0000   -4725.0000  4.88366E+02  215.447  0.00000E+00  1.00000E+00  1.00001  6.5653  1.7240E-05  2.7436E-06  1.7294E-03  2.6042E-04  1.1411E-06  3.0256E-05  9.5409E-11  3.2801E-04  3.5309E-04  1.2894E-06                                                                                                                                                                                                                                                                                                                                                                                                                                                                                                                                                                                                
     625.0000     125.0000   -4725.0000  4.88368E+02  214.739  0.00000E+00  1.00000E+00  1.00001  6.6544  1.0147E-04  1.6146E-05  1.7146E-03  1.8417E-04  6.7115E-06  2.2008E-05  9.3635E-11  2.7445E-04  5.0120E-04  7.5880E-06                                                                                                                                                                                                                                                                                                                                                                                                                                                                                                                                                                                                
     760.0000     125.0000   -4725.0000  4.88367E+02  214.705  0.00000E+00  1.00000E+00  1.00001  6.6542  1.0199E-04  1.6230E-05  1.7113E-03  1.8474E-04  6.7457E-06  2.2075E-05  9.3555E-11  2.7721E-04  4.9547E-04  7.6271E-06                                                                                                                                                                                                                                                                                                                                                                                                                                                                                                                                                                                                
     780.0000     125.0000   -4725.0000  4.88366E+02  214.686  0.00000E+00  1.00000E+00  1.00001  6.6488  9.6997E-05  1.5435E-05  1.7060E-03  1.8936E-04  6.4152E-06  2.2587E-05  9.3677E-11  2.8160E-04  4.8157E-04  7.2538E-06                                                                                                                                                                                                                                                                                                                                                                                                                                                                                                                                                                                                
     800.0000     125.0000   -4725.0000  4.88366E+02  215.228  0.00000E+00  1.00000E+00  1.00001  6.5933  4.6121E-05  7.3394E-06  1.7239E-03  2.3325E-04  3.0521E-06  2.7338E-05  9.4691E-11  3.1004E-04  3.9423E-04  3.4492E-06                                                                                                                                                                                                                                                                                                                                                                                                                                                                                                                                                                                                
     935.0000     125.0000   -4725.0000  4.88365E+02  215.498  0.00000E+00  1.00000E+00  1.00001  6.5657  1.8273E-05  2.9078E-06  1.7345E-03  2.5920E-04  1.2095E-06  3.0118E-05  9.5363E-11  3.2679E-04  3.5529E-04  1.3666E-06                                                                                                                                                                                                                                                                                                                                                                                                                                                                                                                                                                                                
    1185.0000     125.0000   -4725.0000  4.88362E+02  215.983  0.00000E+00  1.00000E+00  1.00001  6.5483  4.6691E-06  7.4309E-07  1.7725E-03  2.7160E-04  3.0939E-07  3.1395E-05  9.6829E-11  3.3389E-04  3.4048E-04  3.4926E-07                                                                                                                                                                                                                                                                                                                                                                                                                                                                                                                                                                                                