Title="TOUGHREACT V3.30-OMP: Aqueous Total & Species Concentrations in mol/kg h2o, Surface & Exchanged Species in mol/kg h2o, Dry blocks in mol/L medium"                                                                                                                                                                                                                                                                                                                                                                                                                                                                                                                                                                                                                                                                       
Variables= "X(m)"   "Y(m)"   "Z(m)"   "P(bar)"     "T(C)"   "SatGas"   "SatLiq"     "aH2O"       "pH"        "t_na+"        "t_cl-"      "t_hco3-"       "t_ca+2"      "t_so4-2"       "t_mg+2"       "t_ba+2"       "t_al+3"     "t_h4sio4"         "t_k+"                                                                                                                                                                                                                                                                                                                                                                                                                                                                                                                                                                     
Zone T= "1.37212464E+03 yr" I=      9J=     10K=     23F=Point 
     125.0000     125.0000   -5425.0000  5.47787E+02  255.798  0.00000E+00  1.00000E+00  1.00001  6.0432  1.0846E-10  1.0136E-10  1.4164E-02  2.6402E-04  9.9140E-11  2.6763E-05  9.9199E-11  3.5330E-04  3.5759E-04  1.0066E-10                                                                                                                                                                                                                                                                                                                                                                                                                                                                                                                                                                                                
     375.0000     125.0000   -5425.0000  5.47787E+02  255.799  0.00000E+00  1.00000E+00  1.00001  6.0432  1.8836E-10  1.1408E-10  1.4164E-02  2.6402E-04  1.0435E-10  2.6763E-05  9.9198E-11  3.5330E-04  3.5759E-04  1.0664E-10                                                                                                                                                                                                                                                                                                                                                                                                                                                                                                                                                                                                
     625.0000     125.0000   -5425.0000  5.47787E+02  255.799  0.00000E+00  1.00000E+00  1.00001  6.0432  1.1961E-09  2.7441E-10  1.4165E-02  2.6401E-04  1.7005E-10  2.6763E-05  9.9198E-11  3.5329E-04  3.5759E-04  1.8199E-10                                                                                                                                                                                                                                                                                                                                                                                                                                                                                                                                                                                                
     760.0000     125.0000   -5425.0000  5.47786E+02  255.799  0.00000E+00  1.00000E+00  1.00001  6.0432  1.2190E-09  2.7805E-10  1.4165E-02  2.6401E-04  1.7154E-10  2.6763E-05  9.9198E-11  3.5329E-04  3.5759E-04  1.8370E-10                                                                                                                                                                                                                                                                                                                                                                                                                                                                                                                                                                                                
     780.0000     125.0000   -5425.0000  5.47785E+02  255.799  0.00000E+00  1.00000E+00  1.00001  6.0432  1.1794E-09  2.7175E-10  1.4165E-02  2.6401E-04  1.6896E-10  2.6763E-05  9.9198E-11  3.5329E-04  3.5759E-04  1.8074E-10                                                                                                                                                                                                                                                                                                                                                                                                                                                                                                                                                                                                
     800.0000     125.0000   -5425.0000  5.47785E+02  255.799  0.00000E+00  1.00000E+00  1.00001  6.0432  4.9672E-10  1.6314E-10  1.4165E-02  2.6401E-04  1.2445E-10  2.6763E-05  9.9198E-11  3.5330E-04  3.5759E-04  1.2969E-10                                                                                                                                                                                                                                                                                                                                                                                                                                                                                                                                                                                                
     935.0000     125.0000   -5425.0000  5.47784E+02  255.799  0.00000E+00  1.00000E+00  1.00001  6.0432  1.9729E-10  1.1550E-10  1.4164E-02  2.6401E-04  1.0493E-10  2.6763E-05  9.9199E-11  3.5330E-04  3.5759E-04  1.0730E-10                                                                                                                                                                                                                                                                                                                                                                                                                                                                                                                                                                                                
    1185.0000     125.0000   -5425.0000  5.47781E+02  255.799  0.00000E+00  1.00000E+00  1.00001  6.0432  1.1158E-10  1.0186E-10  1.4164E-02  2.6402E-04  9.9344E-11  2.6763E-05  9.9199E-11  3.5329E-04  3.5759E-04  1.0090E-10                                                                                                                                                                                                                                                                                                                                                                                                                                                                                                                                                                                                
    1435.0000     125.0000   -5425.0000  5.47778E+02  255.799  0.00000E+00  1.00000E+00  1.00001  6.0432  1.0088E-10  1.0016E-10  1.4164E-02  2.6401E-04  9.8649E-11  2.6763E-05  9.9201E-11  3.5330E-04  3.5759E-04  1.0010E-10                                                                                                                                                                                                                                                                                                                                                                                                                                                                                                                                                                                                
     125.0000     125.0000   -5225.0000  5.31122E+02  238.169  0.00000E+00  1.00000E+00  1.00001  6.2507  1.7227E-09  3.5829E-10  5.6716E-03  2.7263E-04  2.0967E-10  2.9115E-05  1.0074E-10  3.5042E-04  3.4631E-04  2.2140E-10                                                                                                                                                                                                                                                                                                                                                                                                                                                                                                                                                                                                
     375.0000     125.0000   -5225.0000  5.31123E+02  238.169  0.00000E+00  1.00000E+00  1.00001  6.2507  1.3543E-08  2.2395E-09  5.6715E-03  2.7262E-04  9.9955E-10  2.9114E-05  1.0074E-10  3.5041E-04  3.4632E-04  1.1054E-09                                                                                                                                                                                                                                                                                                                                                                                                                                                                                                                                                                                                
     625.0000     125.0000   -5225.0000  5.31123E+02  238.170  0.00000E+00  1.00000E+00  1.00001  6.2508  1.3425E-07  2.1450E-08  5.6717E-03  2.7252E-04  9.0684E-09  2.9104E-05  1.0074E-10  3.5036E-04  3.4643E-04  1.0133E-08                                                                                                                                                                                                                                                                                                                                                                                                                                                                                                                                                                                                
     760.0000     125.0000   -5225.0000  5.31122E+02  238.170  0.00000E+00  1.00000E+00  1.00001  6.2508  1.3631E-07  2.1778E-08  5.6718E-03  2.7251E-04  9.2060E-09  2.9104E-05  1.0074E-10  3.5036E-04  3.4643E-04  1.0287E-08                                                                                                                                                                                                                                                                                                                                                                                                                                                                                                                                                                                                
     780.0000     125.0000   -5225.0000  5.31122E+02  238.170  0.00000E+00  1.00000E+00  1.00001  6.2508  1.3145E-07  2.1005E-08  5.6719E-03  2.7252E-04  8.8812E-09  2.9104E-05  1.0074E-10  3.5037E-04  3.4642E-04  9.9237E-09                                                                                                                                                                                                                                                                                                                                                                                                                                                                                                                                                                                                
     800.0000     125.0000   -5225.0000  5.31122E+02  238.170  0.00000E+00  1.00000E+00  1.00001  6.2507  5.0439E-08  8.1113E-09  5.6719E-03  2.7259E-04  3.4658E-09  2.9111E-05  1.0074E-10  3.5040E-04  3.4635E-04  3.8648E-09                                                                                                                                                                                                                                                                                                                                                                                                                                                                                                                                                                                                
     935.0000     125.0000   -5225.0000  5.31120E+02  238.171  0.00000E+00  1.00000E+00  1.00001  6.2507  1.4698E-08  2.4232E-09  5.6720E-03  2.7262E-04  1.0767E-09  2.9114E-05  1.0074E-10  3.5041E-04  3.4632E-04  1.1918E-09                                                                                                                                                                                                                                                                                                                                                                                                                                                                                                                                                                                                
    1185.0000     125.0000   -5225.0000  5.31116E+02  238.173  0.00000E+00  1.00000E+00  1.00001  6.2506  2.2646E-09  4.4452E-10  5.6728E-03  2.7263E-04  2.4588E-10  2.9115E-05  1.0074E-10  3.5042E-04  3.4631E-04  2.6192E-10                                                                                                                                                                                                                                                                                                                                                                                                                                                                                                                                                                                                
    1435.0000     125.0000   -5225.0000  5.31113E+02  238.177  0.00000E+00  1.00000E+00  1.00001  6.2506  3.1950E-10  1.3497E-10  5.6737E-03  2.7263E-04  1.1592E-10  2.9115E-05  1.0074E-10  3.5042E-04  3.4631E-04  1.1645E-10                                                                                                                                                                                                                                                                                                                                                                                                                                                                                                                                                                                                
     125.0000     125.0000   -4975.0000  5.09922E+02  227.255  0.00000E+00  1.00000E+00  1.00001  6.3905  1.2978E-07  2.0737E-08  3.1889E-03  2.7554E-04  8.7068E-09  3.0512E-05  1.0026E-10  3.4370E-04  3.4199E-04  9.7982E-09                                                                                                                                                                                                                                                                                                                                                                                                                                                                                                                                                                                                
     375.0000     125.0000   -4975.0000  5.09925E+02  227.249  0.00000E+00  1.00000E+00  1.00001  6.3911  8.4247E-07  1.3415E-07  3.1882E-03  2.7490E-04  5.6004E-08  3.0447E-05  1.0022E-10  3.4340E-04  3.4267E-04  6.3096E-08                                                                                                                                                                                                                                                                                                                                                                                                                                                                                                                                                                                                
     625.0000     125.0000   -4975.0000  5.09928E+02  227.243  0.00000E+00  1.00000E+00  1.00001  6.3957  6.5747E-06  1.0464E-06  3.1894E-03  2.6949E-04  4.3650E-07  2.9895E-05  1.0014E-10  3.4039E-04  3.4907E-04  4.9178E-07                                                                                                                                                                                                                                                                                                                                                                                                                                                                                                                                                                                                
     760.0000     125.0000   -4975.0000  5.09925E+02  227.243  0.00000E+00  1.00000E+00  1.00001  6.3957  6.6541E-06  1.0590E-06  3.1895E-03  2.6950E-04  4.4177E-07  2.9896E-05  1.0014E-10  3.4057E-04  3.4889E-04  4.9772E-07                                                                                                                                                                                                                                                                                                                                                                                                                                                                                                                                                                                                
     780.0000     125.0000   -4975.0000  5.09925E+02  227.243  0.00000E+00  1.00000E+00  1.00001  6.3955  6.4150E-06  1.0210E-06  3.1894E-03  2.6978E-04  4.2590E-07  2.9924E-05  1.0014E-10  3.4085E-04  3.4843E-04  4.7984E-07                                                                                                                                                                                                                                                                                                                                                                                                                                                                                                                                                                                                
     800.0000     125.0000   -4975.0000  5.09924E+02  227.249  0.00000E+00  1.00000E+00  1.00001  6.3925  2.6358E-06  4.1954E-07  3.1888E-03  2.7328E-04  1.7504E-07  3.0282E-05  1.0019E-10  3.4265E-04  3.4442E-04  1.9721E-07                                                                                                                                                                                                                                                                                                                                                                                                                                                                                                                                                                                                
     935.0000     125.0000   -4975.0000  5.09921E+02  227.252  0.00000E+00  1.00000E+00  1.00001  6.3911  9.0354E-07  1.4387E-07  3.1888E-03  2.7483E-04  6.0058E-08  3.0440E-05  1.0021E-10  3.4335E-04  3.4276E-04  6.7663E-08                                                                                                                                                                                                                                                                                                                                                                                                                                                                                                                                                                                                
    1185.0000     125.0000   -4975.0000  5.09914E+02  227.263  0.00000E+00  1.00000E+00  1.00001  6.3904  1.7257E-07  2.7546E-08  3.1903E-03  2.7550E-04  1.1547E-08  3.0507E-05  1.0027E-10  3.4369E-04  3.4203E-04  1.2998E-08                                                                                                                                                                                                                                                                                                                                                                                                                                                                                                                                                                                                
    1435.0000     125.0000   -4975.0000  5.09909E+02  227.275  0.00000E+00  1.00000E+00  1.00001  6.3902  2.5509E-08  4.1434E-09  3.1922E-03  2.7562E-04  1.7869E-09  3.0518E-05  1.0028E-10  3.4374E-04  3.4192E-04  2.0002E-09                                                                                                                                                                                                                                                                                                                                                                                                                                                                                                                                                                                                
     125.0000     125.0000   -4725.0000  4.88453E+02  215.821  0.00000E+00  1.00000E+00  1.00001  6.5495  3.4574E-06  5.5025E-07  1.7573E-03  2.7290E-04  2.2870E-07  3.1555E-05  9.6446E-11  3.3416E-04  3.3917E-04  2.5864E-07                                                                                                                                                                                                                                                                                                                                                                                                                                                                                                                                                                                                
     375.0000     125.0000   -4725.0000  4.88454E+02  215.413  0.00000E+00  1.00000E+00  1.00001  6.5658  1.7339E-05  2.7592E-06  1.7265E-03  2.6042E-04  1.1459E-06  3.0260E-05  9.5255E-11  3.2762E-04  3.5346E-04  1.2967E-06                                                                                                                                                                                                                                                                                                                                                                                                                                                                                                                                                                                                
     625.0000     125.0000   -4725.0000  4.88455E+02  214.713  0.00000E+00  1.00000E+00  1.00001  6.6554  1.0221E-04  1.6264E-05  1.7128E-03  1.8367E-04  6.7552E-06  2.1955E-05  9.3518E-11  2.7402E-04  5.0264E-04  7.6434E-06                                                                                                                                                                                                                                                                                                                                                                                                                                                                                                                                                                                                
     760.0000     125.0000   -4725.0000  4.88453E+02  214.680  0.00000E+00  1.00000E+00  1.00001  6.6553  1.0281E-04  1.6361E-05  1.7097E-03  1.8417E-04  6.7951E-06  2.2014E-05  9.3440E-11  2.7674E-04  4.9706E-04  7.6889E-06                                                                                                                                                                                                                                                                                                                                                                                                                                                                                                                                                                                                
     780.0000     125.0000   -4725.0000  4.88453E+02  214.661  0.00000E+00  1.00000E+00  1.00001  6.6508  9.8817E-05  1.5725E-05  1.7050E-03  1.8803E-04  6.5305E-06  2.2443E-05  9.3549E-11  2.8077E-04  4.8471E-04  7.3899E-06                                                                                                                                                                                                                                                                                                                                                                                                                                                                                                                                                                                                
     800.0000     125.0000   -4725.0000  4.88453E+02  215.199  0.00000E+00  1.00000E+00  1.00001  6.5923  4.4672E-05  7.1088E-06  1.7205E-03  2.3471E-04  2.9527E-06  2.7499E-05  9.4576E-11  3.1078E-04  3.9202E-04  3.3408E-06                                                                                                                                                                                                                                                                                                                                                                                                                                                                                                                                                                                                
     935.0000     125.0000   -4725.0000  4.88450E+02  215.464  0.00000E+00  1.00000E+00  1.00001  6.5661  1.8393E-05  2.9270E-06  1.7315E-03  2.5918E-04  1.2157E-06  3.0120E-05  9.5205E-11  3.2637E-04  3.5571E-04  1.3756E-06                                                                                                                                                                                                                                                                                                                                                                                                                                                                                                                                                                                                
    1185.0000     125.0000   -4725.0000  4.88443E+02  215.946  0.00000E+00  1.00000E+00  1.00001  6.5488  4.6953E-06  7.4725E-07  1.7691E-03  2.7167E-04  3.1061E-07  3.1407E-05  9.6661E-11  3.3345E-04  3.4083E-04  3.5122E-07                                                                                                                                                                                                                                                                                                                                                                                                                                                                                                                                                                                                