Title="TOUGHREACT V3.30-OMP: Aqueous Total & Species Concentrations in mol/kg h2o, Surface & Exchanged Species in mol/kg h2o, Dry blocks in mol/L medium"                                                                                                                                                                                                                                                                                                                                                                                                                                                                                                                                                                                                                                                                       
Variables= "X(m)"   "Y(m)"   "Z(m)"   "P(bar)"     "T(C)"   "SatGas"   "SatLiq"     "aH2O"       "pH"        "t_na+"        "t_cl-"      "t_hco3-"       "t_ca+2"      "t_so4-2"       "t_mg+2"       "t_ba+2"       "t_al+3"     "t_h4sio4"         "t_k+"                                                                                                                                                                                                                                                                                                                                                                                                                                                                                                                                                                     
Zone T= "2.42736137E+03 yr" I=      9J=     10K=     23F=Point 
     125.0000     125.0000   -5425.0000  5.47644E+02  262.661  0.00000E+00  1.00000E+00  1.00001  5.9686  1.0887E-10  1.0141E-10  2.0046E-02  2.5940E-04  9.7060E-11  2.5800E-05  9.7986E-11  3.5300E-04  3.6337E-04  1.0069E-10                                                                                                                                                                                                                                                                                                                                                                                                                                                                                                                                                                                                
     375.0000     125.0000   -5425.0000  5.47645E+02  262.661  0.00000E+00  1.00000E+00  1.00001  5.9686  1.9159E-10  1.1457E-10  2.0046E-02  2.5940E-04  1.0234E-10  2.5800E-05  9.7986E-11  3.5300E-04  3.6337E-04  1.0687E-10                                                                                                                                                                                                                                                                                                                                                                                                                                                                                                                                                                                                
     625.0000     125.0000   -5425.0000  5.47645E+02  262.662  0.00000E+00  1.00000E+00  1.00001  5.9686  1.2263E-09  2.7915E-10  2.0047E-02  2.5940E-04  1.6843E-10  2.5800E-05  9.7985E-11  3.5300E-04  3.6337E-04  1.8423E-10                                                                                                                                                                                                                                                                                                                                                                                                                                                                                                                                                                                                
     760.0000     125.0000   -5425.0000  5.47644E+02  262.662  0.00000E+00  1.00000E+00  1.00001  5.9686  1.2488E-09  2.8273E-10  2.0047E-02  2.5940E-04  1.6986E-10  2.5800E-05  9.7985E-11  3.5300E-04  3.6337E-04  1.8591E-10                                                                                                                                                                                                                                                                                                                                                                                                                                                                                                                                                                                                
     780.0000     125.0000   -5425.0000  5.47644E+02  262.662  0.00000E+00  1.00000E+00  1.00001  5.9686  1.1986E-09  2.7475E-10  2.0046E-02  2.5940E-04  1.6666E-10  2.5800E-05  9.7985E-11  3.5300E-04  3.6337E-04  1.8216E-10                                                                                                                                                                                                                                                                                                                                                                                                                                                                                                                                                                                                
     800.0000     125.0000   -5425.0000  5.47644E+02  262.662  0.00000E+00  1.00000E+00  1.00001  5.9686  5.2270E-10  1.6724E-10  2.0046E-02  2.5940E-04  1.2349E-10  2.5800E-05  9.7985E-11  3.5300E-04  3.6337E-04  1.3163E-10                                                                                                                                                                                                                                                                                                                                                                                                                                                                                                                                                                                                
     935.0000     125.0000   -5425.0000  5.47643E+02  262.661  0.00000E+00  1.00000E+00  1.00001  5.9686  2.0088E-10  1.1605E-10  2.0046E-02  2.5940E-04  1.0294E-10  2.5800E-05  9.7986E-11  3.5300E-04  3.6337E-04  1.0757E-10                                                                                                                                                                                                                                                                                                                                                                                                                                                                                                                                                                                                
    1185.0000     125.0000   -5425.0000  5.47640E+02  262.661  0.00000E+00  1.00000E+00  1.00001  5.9686  1.1216E-10  1.0194E-10  2.0046E-02  2.5940E-04  9.7271E-11  2.5800E-05  9.7987E-11  3.5300E-04  3.6337E-04  1.0094E-10                                                                                                                                                                                                                                                                                                                                                                                                                                                                                                                                                                                                
    1435.0000     125.0000   -5425.0000  5.47639E+02  262.661  0.00000E+00  1.00000E+00  1.00001  5.9686  1.0096E-10  1.0016E-10  2.0046E-02  2.5940E-04  9.6557E-11  2.5800E-05  9.7989E-11  3.5300E-04  3.6337E-04  1.0010E-10                                                                                                                                                                                                                                                                                                                                                                                                                                                                                                                                                                                                
     125.0000     125.0000   -5225.0000  5.31062E+02  238.205  0.00000E+00  1.00000E+00  1.00001  6.2505  1.7316E-09  3.5973E-10  5.6825E-03  2.7226E-04  2.1218E-10  2.9075E-05  1.0127E-10  3.5209E-04  3.4493E-04  2.2207E-10                                                                                                                                                                                                                                                                                                                                                                                                                                                                                                                                                                                                
     375.0000     125.0000   -5225.0000  5.31063E+02  238.204  0.00000E+00  1.00000E+00  1.00001  6.2506  1.3585E-08  2.2463E-09  5.6821E-03  2.7225E-04  1.0115E-09  2.9074E-05  1.0127E-10  3.5208E-04  3.4494E-04  1.1086E-09                                                                                                                                                                                                                                                                                                                                                                                                                                                                                                                                                                                                
     625.0000     125.0000   -5225.0000  5.31063E+02  238.204  0.00000E+00  1.00000E+00  1.00001  6.2506  1.3415E-07  2.1435E-08  5.6821E-03  2.7215E-04  9.1449E-09  2.9063E-05  1.0127E-10  3.5203E-04  3.4505E-04  1.0126E-08                                                                                                                                                                                                                                                                                                                                                                                                                                                                                                                                                                                                
     760.0000     125.0000   -5225.0000  5.31062E+02  238.205  0.00000E+00  1.00000E+00  1.00001  6.2506  1.3610E-07  2.1747E-08  5.6823E-03  2.7214E-04  9.2768E-09  2.9063E-05  1.0127E-10  3.5203E-04  3.4505E-04  1.0272E-08                                                                                                                                                                                                                                                                                                                                                                                                                                                                                                                                                                                                
     780.0000     125.0000   -5225.0000  5.31062E+02  238.205  0.00000E+00  1.00000E+00  1.00001  6.2506  1.3016E-07  2.0800E-08  5.6824E-03  2.7215E-04  8.8755E-09  2.9064E-05  1.0127E-10  3.5204E-04  3.4504E-04  9.8273E-09                                                                                                                                                                                                                                                                                                                                                                                                                                                                                                                                                                                                
     800.0000     125.0000   -5225.0000  5.31062E+02  238.205  0.00000E+00  1.00000E+00  1.00001  6.2506  5.2172E-08  8.3879E-09  5.6824E-03  2.7222E-04  3.6146E-09  2.9071E-05  1.0127E-10  3.5207E-04  3.4497E-04  3.9946E-09                                                                                                                                                                                                                                                                                                                                                                                                                                                                                                                                                                                                
     935.0000     125.0000   -5225.0000  5.31061E+02  238.206  0.00000E+00  1.00000E+00  1.00001  6.2505  1.4742E-08  2.4305E-09  5.6827E-03  2.7225E-04  1.0896E-09  2.9074E-05  1.0127E-10  3.5208E-04  3.4494E-04  1.1952E-09                                                                                                                                                                                                                                                                                                                                                                                                                                                                                                                                                                                                
    1185.0000     125.0000   -5225.0000  5.31058E+02  238.210  0.00000E+00  1.00000E+00  1.00001  6.2505  2.2818E-09  4.4730E-10  5.6838E-03  2.7226E-04  2.4928E-10  2.9074E-05  1.0127E-10  3.5209E-04  3.4493E-04  2.6322E-10                                                                                                                                                                                                                                                                                                                                                                                                                                                                                                                                                                                                
    1435.0000     125.0000   -5225.0000  5.31056E+02  238.214  0.00000E+00  1.00000E+00  1.00001  6.2504  3.2224E-10  1.3542E-10  5.6850E-03  2.7226E-04  1.1715E-10  2.9074E-05  1.0127E-10  3.5209E-04  3.4493E-04  1.1666E-10                                                                                                                                                                                                                                                                                                                                                                                                                                                                                                                                                                                                
     125.0000     125.0000   -4975.0000  5.09862E+02  227.275  0.00000E+00  1.00000E+00  1.00001  6.3904  1.2991E-07  2.0759E-08  3.1924E-03  2.7536E-04  8.7476E-09  3.0491E-05  1.0048E-10  3.4447E-04  3.4135E-04  9.8082E-09                                                                                                                                                                                                                                                                                                                                                                                                                                                                                                                                                                                                
     375.0000     125.0000   -4975.0000  5.09864E+02  227.268  0.00000E+00  1.00000E+00  1.00001  6.3910  8.4368E-07  1.3435E-07  3.1915E-03  2.7472E-04  5.6289E-08  3.0427E-05  1.0044E-10  3.4417E-04  3.4203E-04  6.3188E-08                                                                                                                                                                                                                                                                                                                                                                                                                                                                                                                                                                                                
     625.0000     125.0000   -4975.0000  5.09867E+02  227.260  0.00000E+00  1.00000E+00  1.00001  6.3956  6.5463E-06  1.0419E-06  3.1923E-03  2.6935E-04  4.3615E-07  2.9878E-05  1.0035E-10  3.4114E-04  3.4843E-04  4.8967E-07                                                                                                                                                                                                                                                                                                                                                                                                                                                                                                                                                                                                
     760.0000     125.0000   -4975.0000  5.09866E+02  227.261  0.00000E+00  1.00000E+00  1.00001  6.3956  6.6198E-06  1.0536E-06  3.1925E-03  2.6936E-04  4.4104E-07  2.9879E-05  1.0035E-10  3.4132E-04  3.4824E-04  4.9516E-07                                                                                                                                                                                                                                                                                                                                                                                                                                                                                                                                                                                                
     780.0000     125.0000   -4975.0000  5.09865E+02  227.261  0.00000E+00  1.00000E+00  1.00001  6.3953  6.3329E-06  1.0079E-06  3.1924E-03  2.6968E-04  4.2193E-07  2.9912E-05  1.0035E-10  3.4162E-04  3.4773E-04  4.7371E-07                                                                                                                                                                                                                                                                                                                                                                                                                                                                                                                                                                                                
     800.0000     125.0000   -4975.0000  5.09865E+02  227.267  0.00000E+00  1.00000E+00  1.00001  6.3925  2.7283E-06  4.3426E-07  3.1920E-03  2.7302E-04  1.8183E-07  3.0253E-05  1.0040E-10  3.4337E-04  3.4389E-04  2.0413E-07                                                                                                                                                                                                                                                                                                                                                                                                                                                                                                                                                                                                
     935.0000     125.0000   -4975.0000  5.09863E+02  227.271  0.00000E+00  1.00000E+00  1.00001  6.3910  9.0299E-07  1.4379E-07  3.1920E-03  2.7466E-04  6.0241E-08  3.0420E-05  1.0043E-10  3.4413E-04  3.4212E-04  6.7623E-08                                                                                                                                                                                                                                                                                                                                                                                                                                                                                                                                                                                                
    1185.0000     125.0000   -4975.0000  5.09857E+02  227.284  0.00000E+00  1.00000E+00  1.00001  6.3903  1.7310E-07  2.7632E-08  3.1939E-03  2.7532E-04  1.1625E-08  3.0486E-05  1.0049E-10  3.4447E-04  3.4140E-04  1.3038E-08                                                                                                                                                                                                                                                                                                                                                                                                                                                                                                                                                                                                
    1435.0000     125.0000   -4975.0000  5.09854E+02  227.297  0.00000E+00  1.00000E+00  1.00001  6.3900  2.5614E-08  4.1603E-09  3.1960E-03  2.7544E-04  1.8005E-09  3.0497E-05  1.0050E-10  3.4452E-04  3.4128E-04  2.0081E-09                                                                                                                                                                                                                                                                                                                                                                                                                                                                                                                                                                                                
     125.0000     125.0000   -4725.0000  4.88391E+02  215.846  0.00000E+00  1.00000E+00  1.00001  6.5492  3.4413E-06  5.4770E-07  1.7595E-03  2.7286E-04  2.2789E-07  3.1547E-05  9.6557E-11  3.3445E-04  3.3894E-04  2.5744E-07                                                                                                                                                                                                                                                                                                                                                                                                                                                                                                                                                                                                
     375.0000     125.0000   -4725.0000  4.88393E+02  215.435  0.00000E+00  1.00000E+00  1.00001  6.5655  1.7273E-05  2.7488E-06  1.7284E-03  2.6042E-04  1.1427E-06  3.0258E-05  9.5357E-11  3.2788E-04  3.5321E-04  1.2918E-06                                                                                                                                                                                                                                                                                                                                                                                                                                                                                                                                                                                                
     625.0000     125.0000   -4725.0000  4.88394E+02  214.730  0.00000E+00  1.00000E+00  1.00001  6.6547  1.0172E-04  1.6186E-05  1.7140E-03  1.8400E-04  6.7263E-06  2.1990E-05  9.3595E-11  2.7430E-04  5.0169E-04  7.6067E-06                                                                                                                                                                                                                                                                                                                                                                                                                                                                                                                                                                                                
     760.0000     125.0000   -4725.0000  4.88393E+02  214.697  0.00000E+00  1.00000E+00  1.00001  6.6546  1.0227E-04  1.6274E-05  1.7108E-03  1.8454E-04  6.7624E-06  2.2054E-05  9.3516E-11  2.7705E-04  4.9601E-04  7.6480E-06                                                                                                                                                                                                                                                                                                                                                                                                                                                                                                                                                                                                
     780.0000     125.0000   -4725.0000  4.88393E+02  214.677  0.00000E+00  1.00000E+00  1.00001  6.6495  9.7594E-05  1.5530E-05  1.7057E-03  1.8892E-04  6.4530E-06  2.2539E-05  9.3633E-11  2.8132E-04  4.8261E-04  7.2985E-06                                                                                                                                                                                                                                                                                                                                                                                                                                                                                                                                                                                                
     800.0000     125.0000   -4725.0000  4.88393E+02  215.218  0.00000E+00  1.00000E+00  1.00001  6.5930  4.5690E-05  7.2707E-06  1.7228E-03  2.3369E-04  3.0223E-06  2.7386E-05  9.4652E-11  3.1025E-04  3.9358E-04  3.4169E-06                                                                                                                                                                                                                                                                                                                                                                                                                                                                                                                                                                                                
     935.0000     125.0000   -4725.0000  4.88392E+02  215.487  0.00000E+00  1.00000E+00  1.00001  6.5658  1.8315E-05  2.9146E-06  1.7335E-03  2.5919E-04  1.2117E-06  3.0119E-05  9.5310E-11  3.2665E-04  3.5543E-04  1.3697E-06                                                                                                                                                                                                                                                                                                                                                                                                                                                                                                                                                                                                
    1185.0000     125.0000   -4725.0000  4.88389E+02  215.970  0.00000E+00  1.00000E+00  1.00001  6.5485  4.6793E-06  7.4470E-07  1.7713E-03  2.7162E-04  3.0989E-07  3.1399E-05  9.6773E-11  3.3375E-04  3.4060E-04  3.5002E-07                                                                                                                                                                                                                                                                                                                                                                                                                                                                                                                                                                                                