Title="TOUGHREACT V3.30-OMP: Aqueous Total & Species Concentrations in mol/kg h2o, Surface & Exchanged Species in mol/kg h2o, Dry blocks in mol/L medium"                                                                                                                                                                                                                                                                                                                                                                                                                                                                                                                                                                                                                                                                       
Variables= "X(m)"   "Y(m)"   "Z(m)"   "P(bar)"     "T(C)"   "SatGas"   "SatLiq"     "aH2O"       "pH"        "t_na+"        "t_cl-"      "t_hco3-"       "t_ca+2"      "t_so4-2"       "t_mg+2"       "t_ba+2"       "t_al+3"     "t_h4sio4"         "t_k+"                                                                                                                                                                                                                                                                                                                                                                                                                                                                                                                                                                     
Zone T= "3.16887907E+03 yr" I=      9J=     10K=     23F=Point 
     125.0000     125.0000   -5425.0000  5.47549E+02  267.488  0.00000E+00  1.00000E+00  1.00001  5.9183  1.0917E-10  1.0144E-10  2.5503E-02  2.5588E-04  9.4983E-11  2.5114E-05  9.6771E-11  3.5213E-04  3.6846E-04  1.0071E-10                                                                                                                                                                                                                                                                                                                                                                                                                                                                                                                                                                                                
     375.0000     125.0000   -5425.0000  5.47550E+02  267.488  0.00000E+00  1.00000E+00  1.00001  5.9183  1.9391E-10  1.1491E-10  2.5503E-02  2.5588E-04  1.0029E-10  2.5113E-05  9.6770E-11  3.5213E-04  3.6846E-04  1.0704E-10                                                                                                                                                                                                                                                                                                                                                                                                                                                                                                                                                                                                
     625.0000     125.0000   -5425.0000  5.47550E+02  267.489  0.00000E+00  1.00000E+00  1.00001  5.9183  1.2478E-09  2.8248E-10  2.5504E-02  2.5588E-04  1.6621E-10  2.5113E-05  9.6769E-11  3.5213E-04  3.6847E-04  1.8581E-10                                                                                                                                                                                                                                                                                                                                                                                                                                                                                                                                                                                                
     760.0000     125.0000   -5425.0000  5.47549E+02  267.489  0.00000E+00  1.00000E+00  1.00001  5.9183  1.2699E-09  2.8600E-10  2.5504E-02  2.5588E-04  1.6760E-10  2.5113E-05  9.6769E-11  3.5213E-04  3.6847E-04  1.8747E-10                                                                                                                                                                                                                                                                                                                                                                                                                                                                                                                                                                                                
     780.0000     125.0000   -5425.0000  5.47549E+02  267.489  0.00000E+00  1.00000E+00  1.00001  5.9183  1.2124E-09  2.7686E-10  2.5504E-02  2.5588E-04  1.6400E-10  2.5113E-05  9.6769E-11  3.5213E-04  3.6847E-04  1.8317E-10                                                                                                                                                                                                                                                                                                                                                                                                                                                                                                                                                                                                
     800.0000     125.0000   -5425.0000  5.47549E+02  267.489  0.00000E+00  1.00000E+00  1.00001  5.9183  5.4095E-10  1.7009E-10  2.5504E-02  2.5588E-04  1.2199E-10  2.5113E-05  9.6770E-11  3.5213E-04  3.6846E-04  1.3298E-10                                                                                                                                                                                                                                                                                                                                                                                                                                                                                                                                                                                                
     935.0000     125.0000   -5425.0000  5.47548E+02  267.489  0.00000E+00  1.00000E+00  1.00001  5.9183  2.0344E-10  1.1643E-10  2.5503E-02  2.5588E-04  1.0088E-10  2.5113E-05  9.6770E-11  3.5213E-04  3.6846E-04  1.0775E-10                                                                                                                                                                                                                                                                                                                                                                                                                                                                                                                                                                                                
    1185.0000     125.0000   -5425.0000  5.47545E+02  267.488  0.00000E+00  1.00000E+00  1.00001  5.9183  1.1258E-10  1.0198E-10  2.5503E-02  2.5588E-04  9.5197E-11  2.5113E-05  9.6772E-11  3.5213E-04  3.6846E-04  1.0096E-10                                                                                                                                                                                                                                                                                                                                                                                                                                                                                                                                                                                                
    1435.0000     125.0000   -5425.0000  5.47544E+02  267.489  0.00000E+00  1.00000E+00  1.00001  5.9183  1.0102E-10  1.0015E-10  2.5503E-02  2.5588E-04  9.4474E-11  2.5113E-05  9.6774E-11  3.5213E-04  3.6846E-04  1.0010E-10                                                                                                                                                                                                                                                                                                                                                                                                                                                                                                                                                                                                
     125.0000     125.0000   -5225.0000  5.31026E+02  238.238  0.00000E+00  1.00000E+00  1.00001  6.2503  1.7378E-09  3.6074E-10  5.6925E-03  2.7201E-04  2.1394E-10  2.9046E-05  1.0163E-10  3.5325E-04  3.4398E-04  2.2254E-10                                                                                                                                                                                                                                                                                                                                                                                                                                                                                                                                                                                                
     375.0000     125.0000   -5225.0000  5.31027E+02  238.236  0.00000E+00  1.00000E+00  1.00001  6.2504  1.3615E-08  2.2513E-09  5.6919E-03  2.7200E-04  1.0201E-09  2.9045E-05  1.0163E-10  3.5325E-04  3.4399E-04  1.1109E-09                                                                                                                                                                                                                                                                                                                                                                                                                                                                                                                                                                                                
     625.0000     125.0000   -5225.0000  5.31027E+02  238.235  0.00000E+00  1.00000E+00  1.00001  6.2505  1.3406E-07  2.1423E-08  5.6916E-03  2.7189E-04  9.1979E-09  2.9035E-05  1.0163E-10  3.5319E-04  3.4410E-04  1.0120E-08                                                                                                                                                                                                                                                                                                                                                                                                                                                                                                                                                                                                
     760.0000     125.0000   -5225.0000  5.31026E+02  238.236  0.00000E+00  1.00000E+00  1.00001  6.2505  1.3594E-07  2.1722E-08  5.6919E-03  2.7189E-04  9.3253E-09  2.9035E-05  1.0163E-10  3.5320E-04  3.4410E-04  1.0260E-08                                                                                                                                                                                                                                                                                                                                                                                                                                                                                                                                                                                                
     780.0000     125.0000   -5225.0000  5.31026E+02  238.237  0.00000E+00  1.00000E+00  1.00001  6.2505  1.2928E-07  2.0661E-08  5.6920E-03  2.7190E-04  8.8729E-09  2.9035E-05  1.0163E-10  3.5320E-04  3.4409E-04  9.7619E-09                                                                                                                                                                                                                                                                                                                                                                                                                                                                                                                                                                                                
     800.0000     125.0000   -5225.0000  5.31026E+02  238.237  0.00000E+00  1.00000E+00  1.00001  6.2504  5.3310E-08  8.5696E-09  5.6920E-03  2.7196E-04  3.7151E-09  2.9042E-05  1.0163E-10  3.5323E-04  3.4402E-04  4.0799E-09                                                                                                                                                                                                                                                                                                                                                                                                                                                                                                                                                                                                
     935.0000     125.0000   -5225.0000  5.31025E+02  238.238  0.00000E+00  1.00000E+00  1.00001  6.2503  1.4772E-08  2.4354E-09  5.6924E-03  2.7200E-04  1.0986E-09  2.9045E-05  1.0163E-10  3.5325E-04  3.4399E-04  1.1974E-09                                                                                                                                                                                                                                                                                                                                                                                                                                                                                                                                                                                                
    1185.0000     125.0000   -5225.0000  5.31022E+02  238.243  0.00000E+00  1.00000E+00  1.00001  6.2503  2.2931E-09  4.4913E-10  5.6939E-03  2.7201E-04  2.5163E-10  2.9045E-05  1.0163E-10  3.5325E-04  3.4398E-04  2.6408E-10                                                                                                                                                                                                                                                                                                                                                                                                                                                                                                                                                                                                
    1435.0000     125.0000   -5225.0000  5.31020E+02  238.248  0.00000E+00  1.00000E+00  1.00001  6.2502  3.2408E-10  1.3571E-10  5.6953E-03  2.7201E-04  1.1800E-10  2.9045E-05  1.0163E-10  3.5325E-04  3.4398E-04  1.1680E-10                                                                                                                                                                                                                                                                                                                                                                                                                                                                                                                                                                                                
     125.0000     125.0000   -4975.0000  5.09826E+02  227.289  0.00000E+00  1.00000E+00  1.00001  6.3903  1.3000E-07  2.0773E-08  3.1949E-03  2.7524E-04  8.7758E-09  3.0477E-05  1.0064E-10  3.4502E-04  3.4090E-04  9.8148E-09                                                                                                                                                                                                                                                                                                                                                                                                                                                                                                                                                                                                
     375.0000     125.0000   -4975.0000  5.09829E+02  227.281  0.00000E+00  1.00000E+00  1.00001  6.3910  8.4457E-07  1.3449E-07  3.1938E-03  2.7460E-04  5.6492E-08  3.0412E-05  1.0059E-10  3.4472E-04  3.4159E-04  6.3256E-08                                                                                                                                                                                                                                                                                                                                                                                                                                                                                                                                                                                                
     625.0000     125.0000   -4975.0000  5.09832E+02  227.272  0.00000E+00  1.00000E+00  1.00001  6.3955  6.5260E-06  1.0387E-06  3.1944E-03  2.6925E-04  4.3586E-07  2.9866E-05  1.0050E-10  3.4166E-04  3.4797E-04  4.8815E-07                                                                                                                                                                                                                                                                                                                                                                                                                                                                                                                                                                                                
     760.0000     125.0000   -4975.0000  5.09830E+02  227.273  0.00000E+00  1.00000E+00  1.00001  6.3955  6.5951E-06  1.0497E-06  3.1947E-03  2.6926E-04  4.4047E-07  2.9868E-05  1.0050E-10  3.4185E-04  3.4778E-04  4.9332E-07                                                                                                                                                                                                                                                                                                                                                                                                                                                                                                                                                                                                
     780.0000     125.0000   -4975.0000  5.09830E+02  227.274  0.00000E+00  1.00000E+00  1.00001  6.3952  6.2773E-06  9.9908E-07  3.1946E-03  2.6961E-04  4.1925E-07  2.9904E-05  1.0050E-10  3.4216E-04  3.4724E-04  4.6956E-07                                                                                                                                                                                                                                                                                                                                                                                                                                                                                                                                                                                                
     800.0000     125.0000   -4975.0000  5.09829E+02  227.280  0.00000E+00  1.00000E+00  1.00001  6.3924  2.7873E-06  4.4367E-07  3.1942E-03  2.7284E-04  1.8624E-07  3.0233E-05  1.0055E-10  3.4388E-04  3.4351E-04  2.0855E-07                                                                                                                                                                                                                                                                                                                                                                                                                                                                                                                                                                                                
     935.0000     125.0000   -4975.0000  5.09827E+02  227.285  0.00000E+00  1.00000E+00  1.00001  6.3910  9.0247E-07  1.4371E-07  3.1943E-03  2.7454E-04  6.0360E-08  3.0406E-05  1.0059E-10  3.4467E-04  3.4168E-04  6.7586E-08                                                                                                                                                                                                                                                                                                                                                                                                                                                                                                                                                                                                
    1185.0000     125.0000   -4975.0000  5.09822E+02  227.298  0.00000E+00  1.00000E+00  1.00001  6.3902  1.7340E-07  2.7679E-08  3.1964E-03  2.7519E-04  1.1675E-08  3.0471E-05  1.0064E-10  3.4502E-04  3.4095E-04  1.3060E-08                                                                                                                                                                                                                                                                                                                                                                                                                                                                                                                                                                                                
    1435.0000     125.0000   -4975.0000  5.09818E+02  227.312  0.00000E+00  1.00000E+00  1.00001  6.3899  2.5674E-08  4.1700E-09  3.1987E-03  2.7531E-04  1.8092E-09  3.0482E-05  1.0066E-10  3.4507E-04  3.4083E-04  2.0126E-09                                                                                                                                                                                                                                                                                                                                                                                                                                                                                                                                                                                                
     125.0000     125.0000   -4725.0000  4.88355E+02  215.863  0.00000E+00  1.00000E+00  1.00001  6.5490  3.4298E-06  5.4588E-07  1.7611E-03  2.7282E-04  2.2730E-07  3.1541E-05  9.6637E-11  3.3466E-04  3.3878E-04  2.5658E-07                                                                                                                                                                                                                                                                                                                                                                                                                                                                                                                                                                                                
     375.0000     125.0000   -4725.0000  4.88357E+02  215.451  0.00000E+00  1.00000E+00  1.00001  6.5653  1.7227E-05  2.7415E-06  1.7298E-03  2.6042E-04  1.1404E-06  3.0256E-05  9.5431E-11  3.2806E-04  3.5304E-04  1.2884E-06                                                                                                                                                                                                                                                                                                                                                                                                                                                                                                                                                                                                
     625.0000     125.0000   -4725.0000  4.88359E+02  214.743  0.00000E+00  1.00000E+00  1.00001  6.6542  1.0136E-04  1.6130E-05  1.7149E-03  1.8424E-04  6.7055E-06  2.2016E-05  9.3651E-11  2.7451E-04  5.0101E-04  7.5804E-06                                                                                                                                                                                                                                                                                                                                                                                                                                                                                                                                                                                                
     760.0000     125.0000   -4725.0000  4.88358E+02  214.709  0.00000E+00  1.00000E+00  1.00001  6.6541  1.0188E-04  1.6212E-05  1.7116E-03  1.8481E-04  6.7389E-06  2.2083E-05  9.3571E-11  2.7728E-04  4.9525E-04  7.6186E-06                                                                                                                                                                                                                                                                                                                                                                                                                                                                                                                                                                                                
     780.0000     125.0000   -4725.0000  4.88358E+02  214.689  0.00000E+00  1.00000E+00  1.00001  6.6485  9.6760E-05  1.5398E-05  1.7062E-03  1.8953E-04  6.4003E-06  2.2606E-05  9.3695E-11  2.8171E-04  4.8116E-04  7.2361E-06                                                                                                                                                                                                                                                                                                                                                                                                                                                                                                                                                                                                
     800.0000     125.0000   -4725.0000  4.88357E+02  215.233  0.00000E+00  1.00000E+00  1.00001  6.5934  4.6289E-05  7.3662E-06  1.7243E-03  2.3308E-04  3.0637E-06  2.7319E-05  9.4707E-11  3.0996E-04  3.9449E-04  3.4618E-06                                                                                                                                                                                                                                                                                                                                                                                                                                                                                                                                                                                                
     935.0000     125.0000   -4725.0000  4.88356E+02  215.503  0.00000E+00  1.00000E+00  1.00001  6.5656  1.8256E-05  2.9051E-06  1.7349E-03  2.5921E-04  1.2086E-06  3.0118E-05  9.5384E-11  3.2685E-04  3.5523E-04  1.3653E-06                                                                                                                                                                                                                                                                                                                                                                                                                                                                                                                                                                                                
    1185.0000     125.0000   -4725.0000  4.88353E+02  215.988  0.00000E+00  1.00000E+00  1.00001  6.5482  4.6650E-06  7.4244E-07  1.7729E-03  2.7159E-04  3.0919E-07  3.1394E-05  9.6852E-11  3.3395E-04  3.4043E-04  3.4896E-07                                                                                                                                                                                                                                                                                                                                                                                                                                                                                                                                                                                                