Title="TOUGHREACT V3.30-OMP: Aqueous Total & Species Concentrations in mol/kg h2o, Surface & Exchanged Species in mol/kg h2o, Dry blocks in mol/L medium"                                                                                                                                                                                                                                                                                                                                                                                                                                                                                                                                                                                                                                                                       
Variables= "X(m)"   "Y(m)"   "Z(m)"   "P(bar)"     "T(C)"   "SatGas"   "SatLiq"     "aH2O"       "pH"        "t_na+"        "t_cl-"      "t_hco3-"       "t_ca+2"      "t_so4-2"       "t_mg+2"       "t_ba+2"       "t_al+3"     "t_h4sio4"         "t_k+"                                                                                                                                                                                                                                                                                                                                                                                                                                                                                                                                                                     
Zone T= "1.16297862E+03 yr" I=      9J=     10K=     23F=Point 
     125.0000     125.0000   -5425.0000  5.47801E+02  254.439  0.00000E+00  1.00000E+00  1.00001  6.0583  1.0838E-10  1.0135E-10  1.3213E-02  2.6486E-04  9.9455E-11  2.6952E-05  9.9382E-11  3.5324E-04  3.5660E-04  1.0066E-10                                                                                                                                                                                                                                                                                                                                                                                                                                                                                                                                                                                                
     375.0000     125.0000   -5425.0000  5.47801E+02  254.439  0.00000E+00  1.00000E+00  1.00001  6.0583  1.8773E-10  1.1398E-10  1.3214E-02  2.6486E-04  1.0464E-10  2.6952E-05  9.9382E-11  3.5324E-04  3.5660E-04  1.0659E-10                                                                                                                                                                                                                                                                                                                                                                                                                                                                                                                                                                                                
     625.0000     125.0000   -5425.0000  5.47800E+02  254.440  0.00000E+00  1.00000E+00  1.00001  6.0583  1.1902E-09  2.7348E-10  1.3214E-02  2.6486E-04  1.7020E-10  2.6952E-05  9.9381E-11  3.5324E-04  3.5660E-04  1.8155E-10                                                                                                                                                                                                                                                                                                                                                                                                                                                                                                                                                                                                
     760.0000     125.0000   -5425.0000  5.47799E+02  254.440  0.00000E+00  1.00000E+00  1.00001  6.0583  1.2131E-09  2.7712E-10  1.3214E-02  2.6486E-04  1.7170E-10  2.6952E-05  9.9382E-11  3.5324E-04  3.5660E-04  1.8326E-10                                                                                                                                                                                                                                                                                                                                                                                                                                                                                                                                                                                                
     780.0000     125.0000   -5425.0000  5.47799E+02  254.440  0.00000E+00  1.00000E+00  1.00001  6.0583  1.1756E-09  2.7116E-10  1.3214E-02  2.6486E-04  1.6925E-10  2.6952E-05  9.9382E-11  3.5324E-04  3.5660E-04  1.8046E-10                                                                                                                                                                                                                                                                                                                                                                                                                                                                                                                                                                                                
     800.0000     125.0000   -5425.0000  5.47799E+02  254.440  0.00000E+00  1.00000E+00  1.00001  6.0583  4.9134E-10  1.6229E-10  1.3214E-02  2.6486E-04  1.2450E-10  2.6952E-05  9.9382E-11  3.5324E-04  3.5660E-04  1.2929E-10                                                                                                                                                                                                                                                                                                                                                                                                                                                                                                                                                                                                
     935.0000     125.0000   -5425.0000  5.47797E+02  254.440  0.00000E+00  1.00000E+00  1.00001  6.0583  1.9657E-10  1.1539E-10  1.3214E-02  2.6486E-04  1.0522E-10  2.6952E-05  9.9382E-11  3.5324E-04  3.5660E-04  1.0725E-10                                                                                                                                                                                                                                                                                                                                                                                                                                                                                                                                                                                                
    1185.0000     125.0000   -5425.0000  5.47793E+02  254.439  0.00000E+00  1.00000E+00  1.00001  6.0583  1.1146E-10  1.0184E-10  1.3214E-02  2.6486E-04  9.9657E-11  2.6952E-05  9.9383E-11  3.5324E-04  3.5660E-04  1.0089E-10                                                                                                                                                                                                                                                                                                                                                                                                                                                                                                                                                                                                
    1435.0000     125.0000   -5425.0000  5.47790E+02  254.440  0.00000E+00  1.00000E+00  1.00001  6.0583  1.0087E-10  1.0016E-10  1.3214E-02  2.6486E-04  9.8966E-11  2.6952E-05  9.9384E-11  3.5324E-04  3.5660E-04  1.0010E-10                                                                                                                                                                                                                                                                                                                                                                                                                                                                                                                                                                                                
     125.0000     125.0000   -5225.0000  5.31121E+02  238.164  0.00000E+00  1.00000E+00  1.00001  6.2507  1.7210E-09  3.5801E-10  5.6699E-03  2.7271E-04  2.0918E-10  2.9123E-05  1.0064E-10  3.5008E-04  3.4658E-04  2.2127E-10                                                                                                                                                                                                                                                                                                                                                                                                                                                                                                                                                                                                
     375.0000     125.0000   -5225.0000  5.31122E+02  238.163  0.00000E+00  1.00000E+00  1.00001  6.2507  1.3537E-08  2.2384E-09  5.6698E-03  2.7270E-04  9.9731E-10  2.9122E-05  1.0064E-10  3.5008E-04  3.4659E-04  1.1049E-09                                                                                                                                                                                                                                                                                                                                                                                                                                                                                                                                                                                                
     625.0000     125.0000   -5225.0000  5.31121E+02  238.164  0.00000E+00  1.00000E+00  1.00001  6.2508  1.3427E-07  2.1453E-08  5.6701E-03  2.7259E-04  9.0531E-09  2.9112E-05  1.0064E-10  3.5003E-04  3.4671E-04  1.0134E-08                                                                                                                                                                                                                                                                                                                                                                                                                                                                                                                                                                                                
     760.0000     125.0000   -5225.0000  5.31120E+02  238.165  0.00000E+00  1.00000E+00  1.00001  6.2508  1.3635E-07  2.1783E-08  5.6702E-03  2.7259E-04  9.1918E-09  2.9111E-05  1.0064E-10  3.5003E-04  3.4671E-04  1.0290E-08                                                                                                                                                                                                                                                                                                                                                                                                                                                                                                                                                                                                
     780.0000     125.0000   -5225.0000  5.31119E+02  238.165  0.00000E+00  1.00000E+00  1.00001  6.2508  1.3172E-07  2.1046E-08  5.6702E-03  2.7259E-04  8.8826E-09  2.9112E-05  1.0064E-10  3.5004E-04  3.4670E-04  9.9432E-09                                                                                                                                                                                                                                                                                                                                                                                                                                                                                                                                                                                                
     800.0000     125.0000   -5225.0000  5.31119E+02  238.165  0.00000E+00  1.00000E+00  1.00001  6.2507  5.0047E-08  8.0489E-09  5.6702E-03  2.7267E-04  3.4333E-09  2.9119E-05  1.0064E-10  3.5007E-04  3.4662E-04  3.8354E-09                                                                                                                                                                                                                                                                                                                                                                                                                                                                                                                                                                                                
     935.0000     125.0000   -5225.0000  5.31117E+02  238.165  0.00000E+00  1.00000E+00  1.00001  6.2507  1.4687E-08  2.4215E-09  5.6703E-03  2.7270E-04  1.0741E-09  2.9122E-05  1.0064E-10  3.5008E-04  3.4660E-04  1.1910E-09                                                                                                                                                                                                                                                                                                                                                                                                                                                                                                                                                                                                
    1185.0000     125.0000   -5225.0000  5.31112E+02  238.168  0.00000E+00  1.00000E+00  1.00001  6.2506  2.2605E-09  4.4387E-10  5.6710E-03  2.7271E-04  2.4516E-10  2.9123E-05  1.0064E-10  3.5008E-04  3.4659E-04  2.6161E-10                                                                                                                                                                                                                                                                                                                                                                                                                                                                                                                                                                                                
    1435.0000     125.0000   -5225.0000  5.31109E+02  238.170  0.00000E+00  1.00000E+00  1.00001  6.2506  3.1887E-10  1.3487E-10  5.6719E-03  2.7271E-04  1.1567E-10  2.9123E-05  1.0064E-10  3.5009E-04  3.4659E-04  1.1641E-10                                                                                                                                                                                                                                                                                                                                                                                                                                                                                                                                                                                                
     125.0000     125.0000   -4975.0000  5.09921E+02  227.251  0.00000E+00  1.00000E+00  1.00001  6.3905  1.2976E-07  2.0733E-08  3.1882E-03  2.7558E-04  8.6988E-09  3.0516E-05  1.0022E-10  3.4354E-04  3.4212E-04  9.7962E-09                                                                                                                                                                                                                                                                                                                                                                                                                                                                                                                                                                                                
     375.0000     125.0000   -4975.0000  5.09924E+02  227.245  0.00000E+00  1.00000E+00  1.00001  6.3911  8.4233E-07  1.3413E-07  3.1876E-03  2.7494E-04  5.5954E-08  3.0451E-05  1.0018E-10  3.4325E-04  3.4279E-04  6.3086E-08                                                                                                                                                                                                                                                                                                                                                                                                                                                                                                                                                                                                
     625.0000     125.0000   -4975.0000  5.09926E+02  227.239  0.00000E+00  1.00000E+00  1.00001  6.3957  6.5801E-06  1.0472E-06  3.1888E-03  2.6952E-04  4.3656E-07  2.9898E-05  1.0010E-10  3.4024E-04  3.4920E-04  4.9218E-07                                                                                                                                                                                                                                                                                                                                                                                                                                                                                                                                                                                                
     760.0000     125.0000   -4975.0000  5.09923E+02  227.240  0.00000E+00  1.00000E+00  1.00001  6.3957  6.6608E-06  1.0601E-06  3.1889E-03  2.6953E-04  4.4191E-07  2.9899E-05  1.0010E-10  3.4042E-04  3.4902E-04  4.9822E-07                                                                                                                                                                                                                                                                                                                                                                                                                                                                                                                                                                                                
     780.0000     125.0000   -4975.0000  5.09923E+02  227.240  0.00000E+00  1.00000E+00  1.00001  6.3955  6.4317E-06  1.0236E-06  3.1888E-03  2.6980E-04  4.2670E-07  2.9927E-05  1.0010E-10  3.4069E-04  3.4857E-04  4.8108E-07                                                                                                                                                                                                                                                                                                                                                                                                                                                                                                                                                                                                
     800.0000     125.0000   -4975.0000  5.09922E+02  227.245  0.00000E+00  1.00000E+00  1.00001  6.3925  2.6140E-06  4.1606E-07  3.1882E-03  2.7333E-04  1.7347E-07  3.0288E-05  1.0014E-10  3.4252E-04  3.4452E-04  1.9558E-07                                                                                                                                                                                                                                                                                                                                                                                                                                                                                                                                                                                                
     935.0000     125.0000   -4975.0000  5.09918E+02  227.248  0.00000E+00  1.00000E+00  1.00001  6.3912  9.0351E-07  1.4386E-07  3.1881E-03  2.7487E-04  6.0013E-08  3.0444E-05  1.0017E-10  3.4320E-04  3.4289E-04  6.7661E-08                                                                                                                                                                                                                                                                                                                                                                                                                                                                                                                                                                                                
    1185.0000     125.0000   -4975.0000  5.09910E+02  227.259  0.00000E+00  1.00000E+00  1.00001  6.3905  1.7239E-07  2.7518E-08  3.1896E-03  2.7553E-04  1.1527E-08  3.0511E-05  1.0023E-10  3.4353E-04  3.4216E-04  1.2985E-08                                                                                                                                                                                                                                                                                                                                                                                                                                                                                                                                                                                                
    1435.0000     125.0000   -4975.0000  5.09903E+02  227.270  0.00000E+00  1.00000E+00  1.00001  6.3902  2.5476E-08  4.1382E-09  3.1914E-03  2.7565E-04  1.7834E-09  3.0522E-05  1.0024E-10  3.4358E-04  3.4205E-04  1.9977E-09                                                                                                                                                                                                                                                                                                                                                                                                                                                                                                                                                                                                
     125.0000     125.0000   -4725.0000  4.88452E+02  215.817  0.00000E+00  1.00000E+00  1.00001  6.5496  3.4604E-06  5.5074E-07  1.7569E-03  2.7291E-04  2.2885E-07  3.1557E-05  9.6424E-11  3.3411E-04  3.3922E-04  2.5887E-07                                                                                                                                                                                                                                                                                                                                                                                                                                                                                                                                                                                                
     375.0000     125.0000   -4725.0000  4.88454E+02  215.409  0.00000E+00  1.00000E+00  1.00001  6.5659  1.7352E-05  2.7613E-06  1.7261E-03  2.6042E-04  1.1466E-06  3.0261E-05  9.5235E-11  3.2756E-04  3.5351E-04  1.2977E-06                                                                                                                                                                                                                                                                                                                                                                                                                                                                                                                                                                                                
     625.0000     125.0000   -4725.0000  4.88455E+02  214.710  0.00000E+00  1.00000E+00  1.00001  6.6555  1.0230E-04  1.6279E-05  1.7126E-03  1.8360E-04  6.7608E-06  2.1949E-05  9.3503E-11  2.7397E-04  5.0282E-04  7.6504E-06                                                                                                                                                                                                                                                                                                                                                                                                                                                                                                                                                                                                
     760.0000     125.0000   -4725.0000  4.88452E+02  214.676  0.00000E+00  1.00000E+00  1.00001  6.6554  1.0292E-04  1.6378E-05  1.7094E-03  1.8409E-04  6.8016E-06  2.2006E-05  9.3427E-11  2.7668E-04  4.9726E-04  7.6970E-06                                                                                                                                                                                                                                                                                                                                                                                                                                                                                                                                                                                                
     780.0000     125.0000   -4725.0000  4.88451E+02  214.657  0.00000E+00  1.00000E+00  1.00001  6.6511  9.9063E-05  1.5764E-05  1.7048E-03  1.8786E-04  6.5460E-06  2.2423E-05  9.3534E-11  2.8066E-04  4.8513E-04  7.4082E-06                                                                                                                                                                                                                                                                                                                                                                                                                                                                                                                                                                                                
     800.0000     125.0000   -4725.0000  4.88451E+02  215.195  0.00000E+00  1.00000E+00  1.00001  6.5921  4.4379E-05  7.0621E-06  1.7200E-03  2.3500E-04  2.9328E-06  2.7531E-05  9.4562E-11  3.1094E-04  3.9157E-04  3.3189E-06                                                                                                                                                                                                                                                                                                                                                                                                                                                                                                                                                                                                
     935.0000     125.0000   -4725.0000  4.88446E+02  215.460  0.00000E+00  1.00000E+00  1.00001  6.5662  1.8404E-05  2.9288E-06  1.7311E-03  2.5918E-04  1.2162E-06  3.0120E-05  9.5184E-11  3.2632E-04  3.5576E-04  1.3764E-06                                                                                                                                                                                                                                                                                                                                                                                                                                                                                                                                                                                                
    1185.0000     125.0000   -4725.0000  4.88437E+02  215.940  0.00000E+00  1.00000E+00  1.00001  6.5488  4.6956E-06  7.4729E-07  1.7686E-03  2.7168E-04  3.1057E-07  3.1409E-05  9.6637E-11  3.3340E-04  3.4087E-04  3.5124E-07                                                                                                                                                                                                                                                                                                                                                                                                                                                                                                                                                                                                