Title="TOUGHREACT V3.30-OMP: Aqueous Total & Species Concentrations in mol/kg h2o, Surface & Exchanged Species in mol/kg h2o, Dry blocks in mol/L medium"                                                                                                                                                                                                                                                                                                                                                                                                                                                                                                                                                                                                                                                                       
Variables= "X(m)"   "Y(m)"   "Z(m)"   "P(bar)"     "T(C)"   "SatGas"   "SatLiq"     "aH2O"       "pH"        "t_na+"        "t_cl-"      "t_hco3-"       "t_ca+2"      "t_so4-2"       "t_mg+2"       "t_ba+2"       "t_al+3"     "t_h4sio4"         "t_k+"                                                                                                                                                                                                                                                                                                                                                                                                                                                                                                                                                                     
Zone T= "9.50663722E+01 yr" I=      9J=     10K=     23F=Point 
     125.0000     125.0000   -5425.0000  5.20059E+02  247.335  0.00000E+00  1.00000E+00  1.00001  6.1398  1.0100E-10  1.0018E-10  9.1606E-03  2.6888E-04  1.0020E-10  2.7924E-05  1.0009E-10  3.5231E-04  3.5198E-04  1.0010E-10                                                                                                                                                                                                                                                                                                                                                                                                                                                                                                                                                                                                
     375.0000     125.0000   -5425.0000  5.20063E+02  247.335  0.00000E+00  1.00000E+00  1.00001  6.1398  1.1713E-10  1.0275E-10  9.1607E-03  2.6888E-04  1.0127E-10  2.7924E-05  1.0009E-10  3.5231E-04  3.5198E-04  1.0131E-10                                                                                                                                                                                                                                                                                                                                                                                                                                                                                                                                                                                                
     625.0000     125.0000   -5425.0000  5.20059E+02  247.336  0.00000E+00  1.00000E+00  1.00001  6.1398  4.0245E-10  1.4815E-10  9.1610E-03  2.6888E-04  1.2015E-10  2.7924E-05  1.0009E-10  3.5231E-04  3.5198E-04  1.2264E-10                                                                                                                                                                                                                                                                                                                                                                                                                                                                                                                                                                                                
     760.0000     125.0000   -5425.0000  5.20049E+02  247.336  0.00000E+00  1.00000E+00  1.00001  6.1398  4.1093E-10  1.4950E-10  9.1608E-03  2.6888E-04  1.2071E-10  2.7924E-05  1.0009E-10  3.5231E-04  3.5198E-04  1.2328E-10                                                                                                                                                                                                                                                                                                                                                                                                                                                                                                                                                                                                
     780.0000     125.0000   -5425.0000  5.20047E+02  247.336  0.00000E+00  1.00000E+00  1.00001  6.1398  4.0332E-10  1.4829E-10  9.1608E-03  2.6888E-04  1.2020E-10  2.7924E-05  1.0009E-10  3.5231E-04  3.5198E-04  1.2271E-10                                                                                                                                                                                                                                                                                                                                                                                                                                                                                                                                                                                                
     800.0000     125.0000   -5425.0000  5.20046E+02  247.336  0.00000E+00  1.00000E+00  1.00001  6.1398  1.9757E-10  1.1555E-10  9.1608E-03  2.6888E-04  1.0659E-10  2.7924E-05  1.0009E-10  3.5231E-04  3.5198E-04  1.0732E-10                                                                                                                                                                                                                                                                                                                                                                                                                                                                                                                                                                                                
     935.0000     125.0000   -5425.0000  5.20034E+02  247.335  0.00000E+00  1.00000E+00  1.00001  6.1398  1.1928E-10  1.0309E-10  9.1607E-03  2.6888E-04  1.0141E-10  2.7924E-05  1.0009E-10  3.5231E-04  3.5198E-04  1.0147E-10                                                                                                                                                                                                                                                                                                                                                                                                                                                                                                                                                                                                
    1185.0000     125.0000   -5425.0000  5.20004E+02  247.335  0.00000E+00  1.00000E+00  1.00001  6.1398  1.0148E-10  1.0026E-10  9.1604E-03  2.6888E-04  1.0023E-10  2.7924E-05  1.0009E-10  3.5231E-04  3.5198E-04  1.0014E-10                                                                                                                                                                                                                                                                                                                                                                                                                                                                                                                                                                                                
    1435.0000     125.0000   -5425.0000  5.19982E+02  247.334  0.00000E+00  1.00000E+00  1.00001  6.1398  1.0007E-10  1.0004E-10  9.1602E-03  2.6888E-04  1.0014E-10  2.7924E-05  1.0009E-10  3.5232E-04  3.5198E-04  1.0003E-10                                                                                                                                                                                                                                                                                                                                                                                                                                                                                                                                                                                                
     125.0000     125.0000   -5225.0000  5.03345E+02  238.016  0.00000E+00  1.00000E+00  1.00001  6.2522  3.7666E-10  1.4405E-10  5.6259E-03  2.7314E-04  1.1841E-10  2.9181E-05  1.0008E-10  3.4829E-04  3.4799E-04  1.2072E-10                                                                                                                                                                                                                                                                                                                                                                                                                                                                                                                                                                                                
     375.0000     125.0000   -5225.0000  5.03353E+02  238.017  0.00000E+00  1.00000E+00  1.00001  6.2522  3.8630E-09  6.9884E-10  5.6260E-03  2.7314E-04  3.4892E-10  2.9180E-05  1.0008E-10  3.4829E-04  3.4799E-04  3.8144E-10                                                                                                                                                                                                                                                                                                                                                                                                                                                                                                                                                                                                
     625.0000     125.0000   -5225.0000  5.03352E+02  238.018  0.00000E+00  1.00000E+00  1.00001  6.2522  5.2711E-08  8.4722E-09  5.6263E-03  2.7310E-04  3.5792E-09  2.9176E-05  1.0008E-10  3.4827E-04  3.4803E-04  4.0345E-09                                                                                                                                                                                                                                                                                                                                                                                                                                                                                                                                                                                                
     760.0000     125.0000   -5225.0000  5.03341E+02  238.017  0.00000E+00  1.00000E+00  1.00001  6.2522  5.3959E-08  8.6708E-09  5.6262E-03  2.7310E-04  3.6617E-09  2.9176E-05  1.0008E-10  3.4827E-04  3.4803E-04  4.1278E-09                                                                                                                                                                                                                                                                                                                                                                                                                                                                                                                                                                                                
     780.0000     125.0000   -5225.0000  5.03339E+02  238.017  0.00000E+00  1.00000E+00  1.00001  6.2522  5.2678E-08  8.4668E-09  5.6262E-03  2.7310E-04  3.5769E-09  2.9176E-05  1.0008E-10  3.4827E-04  3.4803E-04  4.0320E-09                                                                                                                                                                                                                                                                                                                                                                                                                                                                                                                                                                                                
     800.0000     125.0000   -5225.0000  5.03338E+02  238.017  0.00000E+00  1.00000E+00  1.00001  6.2522  1.7546E-08  2.8762E-09  5.6261E-03  2.7313E-04  1.2537E-09  2.9179E-05  1.0008E-10  3.4828E-04  3.4800E-04  1.4047E-09                                                                                                                                                                                                                                                                                                                                                                                                                                                                                                                                                                                                
     935.0000     125.0000   -5225.0000  5.03324E+02  238.017  0.00000E+00  1.00000E+00  1.00001  6.2522  4.3177E-09  7.7119E-10  5.6260E-03  2.7314E-04  3.7898E-10  2.9180E-05  1.0008E-10  3.4829E-04  3.4799E-04  4.1544E-10                                                                                                                                                                                                                                                                                                                                                                                                                                                                                                                                                                                                
    1185.0000     125.0000   -5225.0000  5.03288E+02  238.016  0.00000E+00  1.00000E+00  1.00001  6.2522  5.0083E-10  1.6381E-10  5.6258E-03  2.7314E-04  1.2662E-10  2.9181E-05  1.0008E-10  3.4829E-04  3.4799E-04  1.3000E-10                                                                                                                                                                                                                                                                                                                                                                                                                                                                                                                                                                                                
    1435.0000     125.0000   -5225.0000  5.03260E+02  238.016  0.00000E+00  1.00000E+00  1.00001  6.2522  1.1682E-10  1.0270E-10  5.6258E-03  2.7314E-04  1.0123E-10  2.9181E-05  1.0008E-10  3.4829E-04  3.4799E-04  1.0128E-10                                                                                                                                                                                                                                                                                                                                                                                                                                                                                                                                                                                                
     125.0000     125.0000   -4975.0000  4.82234E+02  227.154  0.00000E+00  1.00000E+00  1.00001  6.3916  4.1053E-08  6.6169E-09  3.1719E-03  2.7585E-04  2.8068E-09  3.0555E-05  1.0004E-10  3.4274E-04  3.4264E-04  3.1626E-09                                                                                                                                                                                                                                                                                                                                                                                                                                                                                                                                                                                                
     375.0000     125.0000   -4975.0000  4.82264E+02  227.154  0.00000E+00  1.00000E+00  1.00001  6.3919  3.9057E-07  6.2236E-08  3.1719E-03  2.7554E-04  2.5908E-08  3.0524E-05  1.0003E-10  3.4263E-04  3.4295E-04  2.9301E-08                                                                                                                                                                                                                                                                                                                                                                                                                                                                                                                                                                                                
     625.0000     125.0000   -4975.0000  4.82279E+02  227.154  0.00000E+00  1.00000E+00  1.00001  6.3945  3.9470E-06  6.2817E-07  3.1733E-03  2.7237E-04  2.6100E-07  3.0199E-05  9.9988E-11  3.4128E-04  3.4627E-04  2.9526E-07                                                                                                                                                                                                                                                                                                                                                                                                                                                                                                                                                                                                
     760.0000     125.0000   -4975.0000  4.82264E+02  227.153  0.00000E+00  1.00000E+00  1.00001  6.3945  4.0171E-06  6.3933E-07  3.1732E-03  2.7234E-04  2.6563E-07  3.0197E-05  9.9987E-11  3.4136E-04  3.4621E-04  3.0050E-07                                                                                                                                                                                                                                                                                                                                                                                                                                                                                                                                                                                                
     780.0000     125.0000   -4975.0000  4.82262E+02  227.153  0.00000E+00  1.00000E+00  1.00001  6.3944  3.9208E-06  6.2401E-07  3.1731E-03  2.7246E-04  2.5927E-07  3.0209E-05  9.9987E-11  3.4147E-04  3.4602E-04  2.9330E-07                                                                                                                                                                                                                                                                                                                                                                                                                                                                                                                                                                                                
     800.0000     125.0000   -4975.0000  4.82259E+02  227.154  0.00000E+00  1.00000E+00  1.00001  6.3926  1.3818E-06  2.1996E-07  3.1724E-03  2.7470E-04  9.1426E-08  3.0437E-05  1.0001E-10  3.4235E-04  3.4375E-04  1.0342E-07                                                                                                                                                                                                                                                                                                                                                                                                                                                                                                                                                                                                
     935.0000     125.0000   -4975.0000  4.82238E+02  227.153  0.00000E+00  1.00000E+00  1.00001  6.3919  4.2991E-07  6.8496E-08  3.1719E-03  2.7551E-04  2.8509E-08  3.0520E-05  1.0002E-10  3.4260E-04  3.4299E-04  3.2243E-08                                                                                                                                                                                                                                                                                                                                                                                                                                                                                                                                                                                                
    1185.0000     125.0000   -4975.0000  4.82174E+02  227.154  0.00000E+00  1.00000E+00  1.00001  6.3916  5.6703E-08  9.1072E-09  3.1720E-03  2.7584E-04  3.8411E-09  3.0554E-05  1.0004E-10  3.4274E-04  3.4266E-04  4.3329E-09                                                                                                                                                                                                                                                                                                                                                                                                                                                                                                                                                                                                
    1435.0000     125.0000   -4975.0000  4.82125E+02  227.155  0.00000E+00  1.00000E+00  1.00001  6.3916  3.3509E-09  6.1733E-10  3.1720E-03  2.7588E-04  3.1492E-10  3.0558E-05  1.0004E-10  3.4275E-04  3.4262E-04  3.4313E-10                                                                                                                                                                                                                                                                                                                                                                                                                                                                                                                                                                                                
     125.0000     125.0000   -4725.0000  4.60936E+02  216.336  0.00000E+00  1.00000E+00  1.00001  6.5420  3.4006E-06  5.4123E-07  1.8043E-03  2.7319E-04  2.2482E-07  3.1523E-05  9.9882E-11  3.3499E-04  3.3890E-04  2.5440E-07                                                                                                                                                                                                                                                                                                                                                                                                                                                                                                                                                                                                
     375.0000     125.0000   -4725.0000  4.61032E+02  216.276  0.00000E+00  1.00000E+00  1.00001  6.5540  1.7956E-05  2.8575E-06  1.8045E-03  2.6001E-04  1.1868E-06  3.0115E-05  9.8974E-11  3.2832E-04  3.5428E-04  1.3429E-06                                                                                                                                                                                                                                                                                                                                                                                                                                                                                                                                                                                                
     625.0000     125.0000   -4725.0000  4.61086E+02  215.807  0.00000E+00  1.00000E+00  1.00001  6.6386  1.0672E-04  1.6982E-05  1.8077E-03  1.8511E-04  7.0530E-06  2.2028E-05  9.7242E-11  2.8821E-04  4.7882E-04  7.9807E-06                                                                                                                                                                                                                                                                                                                                                                                                                                                                                                                                                                                                
     760.0000     125.0000   -4725.0000  4.61064E+02  215.809  0.00000E+00  1.00000E+00  1.00001  6.6383  1.0755E-04  1.7115E-05  1.8077E-03  1.8543E-04  7.1082E-06  2.2064E-05  9.7242E-11  2.9085E-04  4.7417E-04  8.0432E-06                                                                                                                                                                                                                                                                                                                                                                                                                                                                                                                                                                                                
     780.0000     125.0000   -4725.0000  4.61060E+02  215.802  0.00000E+00  1.00000E+00  1.00001  6.6349  1.0467E-04  1.6657E-05  1.8048E-03  1.8826E-04  6.9178E-06  2.2376E-05  9.7238E-11  2.9390E-04  4.6563E-04  7.8278E-06                                                                                                                                                                                                                                                                                                                                                                                                                                                                                                                                                                                                
     800.0000     125.0000   -4725.0000  4.61055E+02  216.104  0.00000E+00  1.00000E+00  1.00001  6.5762  4.2543E-05  6.7700E-06  1.7995E-03  2.3840E-04  2.8118E-06  2.7805E-05  9.8209E-11  3.1751E-04  3.8233E-04  3.1816E-06                                                                                                                                                                                                                                                                                                                                                                                                                                                                                                                                                                                                
     935.0000     125.0000   -4725.0000  4.61019E+02  216.261  0.00000E+00  1.00000E+00  1.00001  6.5551  1.8771E-05  2.9871E-06  1.8036E-03  2.5907E-04  1.2406E-06  3.0015E-05  9.8741E-11  3.2733E-04  3.5595E-04  1.4038E-06                                                                                                                                                                                                                                                                                                                                                                                                                                                                                                                                                                                                
    1185.0000     125.0000   -4725.0000  4.60889E+02  216.335  0.00000E+00  1.00000E+00  1.00001  6.5427  4.2911E-06  6.8292E-07  1.8046E-03  2.7243E-04  2.8366E-07  3.1442E-05  9.9847E-11  3.3474E-04  3.3963E-04  3.2099E-07                                                                                                                                                                                                                                                                                                                                                                                                                                                                                                                                                                                                