Title="TOUGHREACT V3.30-OMP: Aqueous Total & Species Concentrations in mol/kg h2o, Surface & Exchanged Species in mol/kg h2o, Dry blocks in mol/L medium"                                                                                                                                                                                                                                                                                                                                                                                                                                                                                                                                                                                                                                                                       
Variables= "X(m)"   "Y(m)"   "Z(m)"   "P(bar)"     "T(C)"   "SatGas"   "SatLiq"     "aH2O"       "pH"        "t_na+"        "t_cl-"      "t_hco3-"       "t_ca+2"      "t_so4-2"       "t_mg+2"       "t_ba+2"       "t_al+3"     "t_h4sio4"         "t_k+"                                                                                                                                                                                                                                                                                                                                                                                                                                                                                                                                                                     
Zone T= "5.29202805E+02 yr" I=      9J=     10K=     23F=Point 
     125.0000     125.0000   -5425.0000  5.47383E+02  250.318  0.00000E+00  1.00000E+00  1.00001  6.1052  1.0814E-10  1.0132E-10  1.0691E-02  2.6728E-04  1.0025E-10  2.7519E-05  9.9846E-11  3.5284E-04  3.5380E-04  1.0064E-10                                                                                                                                                                                                                                                                                                                                                                                                                                                                                                                                                                                                
     375.0000     125.0000   -5425.0000  5.47382E+02  250.319  0.00000E+00  1.00000E+00  1.00001  6.1051  1.8582E-10  1.1368E-10  1.0691E-02  2.6728E-04  1.0537E-10  2.7519E-05  9.9846E-11  3.5284E-04  3.5380E-04  1.0645E-10                                                                                                                                                                                                                                                                                                                                                                                                                                                                                                                                                                                                
     625.0000     125.0000   -5425.0000  5.47378E+02  250.319  0.00000E+00  1.00000E+00  1.00001  6.1051  1.1726E-09  2.7070E-10  1.0691E-02  2.6728E-04  1.7042E-10  2.7519E-05  9.9846E-11  3.5284E-04  3.5380E-04  1.8024E-10                                                                                                                                                                                                                                                                                                                                                                                                                                                                                                                                                                                                
     760.0000     125.0000   -5425.0000  5.47373E+02  250.319  0.00000E+00  1.00000E+00  1.00001  6.1051  1.1954E-09  2.7433E-10  1.0691E-02  2.6728E-04  1.7192E-10  2.7519E-05  9.9846E-11  3.5284E-04  3.5380E-04  1.8195E-10                                                                                                                                                                                                                                                                                                                                                                                                                                                                                                                                                                                                
     780.0000     125.0000   -5425.0000  5.47372E+02  250.319  0.00000E+00  1.00000E+00  1.00001  6.1051  1.1642E-09  2.6936E-10  1.0691E-02  2.6728E-04  1.6986E-10  2.7519E-05  9.9846E-11  3.5284E-04  3.5380E-04  1.7961E-10                                                                                                                                                                                                                                                                                                                                                                                                                                                                                                                                                                                                
     800.0000     125.0000   -5425.0000  5.47372E+02  250.319  0.00000E+00  1.00000E+00  1.00001  6.1051  4.7214E-10  1.5924E-10  1.0691E-02  2.6728E-04  1.2424E-10  2.7519E-05  9.9846E-11  3.5284E-04  3.5380E-04  1.2786E-10                                                                                                                                                                                                                                                                                                                                                                                                                                                                                                                                                                                                
     935.0000     125.0000   -5425.0000  5.47366E+02  250.319  0.00000E+00  1.00000E+00  1.00001  6.1051  1.9430E-10  1.1503E-10  1.0691E-02  2.6728E-04  1.0593E-10  2.7519E-05  9.9846E-11  3.5284E-04  3.5380E-04  1.0708E-10                                                                                                                                                                                                                                                                                                                                                                                                                                                                                                                                                                                                
    1185.0000     125.0000   -5425.0000  5.47356E+02  250.319  0.00000E+00  1.00000E+00  1.00001  6.1051  1.1107E-10  1.0179E-10  1.0691E-02  2.6728E-04  1.0044E-10  2.7519E-05  9.9846E-11  3.5284E-04  3.5380E-04  1.0086E-10                                                                                                                                                                                                                                                                                                                                                                                                                                                                                                                                                                                                
    1435.0000     125.0000   -5425.0000  5.47348E+02  250.319  0.00000E+00  1.00000E+00  1.00001  6.1051  1.0082E-10  1.0016E-10  1.0691E-02  2.6728E-04  9.9768E-11  2.7519E-05  9.9847E-11  3.5285E-04  3.5380E-04  1.0009E-10                                                                                                                                                                                                                                                                                                                                                                                                                                                                                                                                                                                                
     125.0000     125.0000   -5225.0000  5.30659E+02  238.147  0.00000E+00  1.00000E+00  1.00001  6.2507  1.7162E-09  3.5722E-10  5.6648E-03  2.7294E-04  2.0770E-10  2.9148E-05  1.0032E-10  3.4907E-04  3.4743E-04  2.2090E-10                                                                                                                                                                                                                                                                                                                                                                                                                                                                                                                                                                                                
     375.0000     125.0000   -5225.0000  5.30658E+02  238.147  0.00000E+00  1.00000E+00  1.00001  6.2507  1.3514E-08  2.2347E-09  5.6648E-03  2.7293E-04  9.9031E-10  2.9147E-05  1.0032E-10  3.4907E-04  3.4744E-04  1.1032E-09                                                                                                                                                                                                                                                                                                                                                                                                                                                                                                                                                                                                
     625.0000     125.0000   -5225.0000  5.30654E+02  238.148  0.00000E+00  1.00000E+00  1.00001  6.2508  1.3434E-07  2.1462E-08  5.6651E-03  2.7282E-04  9.0077E-09  2.9136E-05  1.0031E-10  3.4902E-04  3.4755E-04  1.0139E-08                                                                                                                                                                                                                                                                                                                                                                                                                                                                                                                                                                                                
     760.0000     125.0000   -5225.0000  5.30649E+02  238.148  0.00000E+00  1.00000E+00  1.00001  6.2508  1.3646E-07  2.1801E-08  5.6651E-03  2.7282E-04  9.1487E-09  2.9136E-05  1.0031E-10  3.4902E-04  3.4755E-04  1.0298E-08                                                                                                                                                                                                                                                                                                                                                                                                                                                                                                                                                                                                
     780.0000     125.0000   -5225.0000  5.30648E+02  238.148  0.00000E+00  1.00000E+00  1.00001  6.2508  1.3251E-07  2.1171E-08  5.6651E-03  2.7282E-04  8.8860E-09  2.9136E-05  1.0031E-10  3.4903E-04  3.4754E-04  1.0002E-08                                                                                                                                                                                                                                                                                                                                                                                                                                                                                                                                                                                                
     800.0000     125.0000   -5225.0000  5.30647E+02  238.148  0.00000E+00  1.00000E+00  1.00001  6.2507  4.8431E-08  7.7912E-09  5.6651E-03  2.7290E-04  3.3071E-09  2.9144E-05  1.0032E-10  3.4906E-04  3.4747E-04  3.7144E-09                                                                                                                                                                                                                                                                                                                                                                                                                                                                                                                                                                                                
     935.0000     125.0000   -5225.0000  5.30641E+02  238.148  0.00000E+00  1.00000E+00  1.00001  6.2507  1.4637E-08  2.4135E-09  5.6651E-03  2.7293E-04  1.0648E-09  2.9146E-05  1.0032E-10  3.4907E-04  3.4744E-04  1.1872E-09                                                                                                                                                                                                                                                                                                                                                                                                                                                                                                                                                                                                
    1185.0000     125.0000   -5225.0000  5.30627E+02  238.149  0.00000E+00  1.00000E+00  1.00001  6.2507  2.2411E-09  4.4076E-10  5.6655E-03  2.7294E-04  2.4253E-10  2.9147E-05  1.0032E-10  3.4907E-04  3.4743E-04  2.6016E-10                                                                                                                                                                                                                                                                                                                                                                                                                                                                                                                                                                                                
    1435.0000     125.0000   -5225.0000  5.30617E+02  238.151  0.00000E+00  1.00000E+00  1.00001  6.2506  3.1617E-10  1.3443E-10  5.6660E-03  2.7294E-04  1.1486E-10  2.9147E-05  1.0032E-10  3.4907E-04  3.4743E-04  1.1620E-10                                                                                                                                                                                                                                                                                                                                                                                                                                                                                                                                                                                                
     125.0000     125.0000   -4975.0000  5.09468E+02  227.237  0.00000E+00  1.00000E+00  1.00001  6.3906  1.2962E-07  2.0710E-08  3.1859E-03  2.7568E-04  8.6701E-09  3.0529E-05  1.0009E-10  3.4308E-04  3.4250E-04  9.7855E-09                                                                                                                                                                                                                                                                                                                                                                                                                                                                                                                                                                                                
     375.0000     125.0000   -4975.0000  5.09471E+02  227.233  0.00000E+00  1.00000E+00  1.00001  6.3912  8.4242E-07  1.3414E-07  3.1854E-03  2.7504E-04  5.5836E-08  3.0464E-05  1.0005E-10  3.4279E-04  3.4317E-04  6.3091E-08                                                                                                                                                                                                                                                                                                                                                                                                                                                                                                                                                                                                
     625.0000     125.0000   -4975.0000  5.09469E+02  227.228  0.00000E+00  1.00000E+00  1.00001  6.3958  6.5950E-06  1.0496E-06  3.1868E-03  2.6961E-04  4.3662E-07  2.9909E-05  9.9970E-11  3.3980E-04  3.4958E-04  4.9329E-07                                                                                                                                                                                                                                                                                                                                                                                                                                                                                                                                                                                                
     760.0000     125.0000   -4975.0000  5.09461E+02  227.227  0.00000E+00  1.00000E+00  1.00001  6.3958  6.6806E-06  1.0632E-06  3.1868E-03  2.6962E-04  4.4228E-07  2.9909E-05  9.9970E-11  3.3998E-04  3.4941E-04  4.9969E-07                                                                                                                                                                                                                                                                                                                                                                                                                                                                                                                                                                                                
     780.0000     125.0000   -4975.0000  5.09460E+02  227.227  0.00000E+00  1.00000E+00  1.00001  6.3956  6.4810E-06  1.0314E-06  3.1866E-03  2.6986E-04  4.2907E-07  2.9935E-05  9.9971E-11  3.4024E-04  3.4898E-04  4.8476E-07                                                                                                                                                                                                                                                                                                                                                                                                                                                                                                                                                                                                
     800.0000     125.0000   -4975.0000  5.09458E+02  227.232  0.00000E+00  1.00000E+00  1.00001  6.3925  2.5171E-06  4.0064E-07  3.1860E-03  2.7353E-04  1.6668E-07  3.0309E-05  1.0002E-10  3.4211E-04  3.4479E-04  1.8833E-07                                                                                                                                                                                                                                                                                                                                                                                                                                                                                                                                                                                                
     935.0000     125.0000   -4975.0000  5.09448E+02  227.234  0.00000E+00  1.00000E+00  1.00001  6.3913  9.0203E-07  1.4363E-07  3.1857E-03  2.7498E-04  5.9783E-08  3.0457E-05  1.0004E-10  3.4274E-04  3.4326E-04  6.7549E-08                                                                                                                                                                                                                                                                                                                                                                                                                                                                                                                                                                                                
    1185.0000     125.0000   -4975.0000  5.09424E+02  227.242  0.00000E+00  1.00000E+00  1.00001  6.3906  1.7111E-07  2.7313E-08  3.1868E-03  2.7564E-04  1.1417E-08  3.0524E-05  1.0009E-10  3.4307E-04  3.4254E-04  1.2889E-08                                                                                                                                                                                                                                                                                                                                                                                                                                                                                                                                                                                                
    1435.0000     125.0000   -4975.0000  5.09403E+02  227.251  0.00000E+00  1.00000E+00  1.00001  6.3904  2.5256E-08  4.1031E-09  3.1881E-03  2.7576E-04  1.7649E-09  3.0536E-05  1.0011E-10  3.4311E-04  3.4243E-04  1.9812E-09                                                                                                                                                                                                                                                                                                                                                                                                                                                                                                                                                                                                
     125.0000     125.0000   -4725.0000  4.88010E+02  215.801  0.00000E+00  1.00000E+00  1.00001  6.5497  3.4638E-06  5.5127E-07  1.7555E-03  2.7294E-04  2.2892E-07  3.1562E-05  9.6362E-11  3.3394E-04  3.3935E-04  2.5912E-07                                                                                                                                                                                                                                                                                                                                                                                                                                                                                                                                                                                                
     375.0000     125.0000   -4725.0000  4.88019E+02  215.396  0.00000E+00  1.00000E+00  1.00001  6.5661  1.7386E-05  2.7667E-06  1.7249E-03  2.6042E-04  1.1482E-06  3.0263E-05  9.5184E-11  3.2741E-04  3.5366E-04  1.3003E-06                                                                                                                                                                                                                                                                                                                                                                                                                                                                                                                                                                                                
     625.0000     125.0000   -4725.0000  4.88017E+02  214.708  0.00000E+00  1.00000E+00  1.00001  6.6557  1.0256E-04  1.6320E-05  1.7126E-03  1.8345E-04  6.7757E-06  2.1932E-05  9.3492E-11  2.7389E-04  5.0318E-04  7.6696E-06                                                                                                                                                                                                                                                                                                                                                                                                                                                                                                                                                                                                
     760.0000     125.0000   -4725.0000  4.88006E+02  214.688  0.00000E+00  1.00000E+00  1.00001  6.6555  1.0330E-04  1.6439E-05  1.7106E-03  1.8390E-04  6.8247E-06  2.1984E-05  9.3453E-11  2.7671E-04  4.9752E-04  7.7254E-06                                                                                                                                                                                                                                                                                                                                                                                                                                                                                                                                                                                                
     780.0000     125.0000   -4725.0000  4.88004E+02  214.673  0.00000E+00  1.00000E+00  1.00001  6.6515  9.9841E-05  1.5888E-05  1.7065E-03  1.8736E-04  6.5955E-06  2.2368E-05  9.3565E-11  2.8058E-04  4.8598E-04  7.4664E-06                                                                                                                                                                                                                                                                                                                                                                                                                                                                                                                                                                                                
     800.0000     125.0000   -4725.0000  4.88002E+02  215.186  0.00000E+00  1.00000E+00  1.00001  6.5906  4.2660E-05  6.7886E-06  1.7183E-03  2.3666E-04  2.8178E-06  2.7712E-05  9.4538E-11  3.1198E-04  3.8889E-04  3.1903E-06                                                                                                                                                                                                                                                                                                                                                                                                                                                                                                                                                                                                
     935.0000     125.0000   -4725.0000  4.87986E+02  215.444  0.00000E+00  1.00000E+00  1.00001  6.5664  1.8394E-05  2.9272E-06  1.7298E-03  2.5922E-04  1.2149E-06  3.0127E-05  9.5124E-11  3.2618E-04  3.5585E-04  1.3757E-06                                                                                                                                                                                                                                                                                                                                                                                                                                                                                                                                                                                                
    1185.0000     125.0000   -4725.0000  4.87943E+02  215.920  0.00000E+00  1.00000E+00  1.00001  6.5491  4.6666E-06  7.4268E-07  1.7667E-03  2.7174E-04  3.0845E-07  3.1418E-05  9.6560E-11  3.3323E-04  3.4097E-04  3.4907E-07                                                                                                                                                                                                                                                                                                                                                                                                                                                                                                                                                                                                