Title="TOUGHREACT V3.30-OMP: Aqueous Total & Species Concentrations in mol/kg h2o, Surface & Exchanged Species in mol/kg h2o, Dry blocks in mol/L medium"                                                                                                                                                                                                                                                                                                                                                                                                                                                                                                                                                                                                                                                                       
Variables= "X(m)"   "Y(m)"   "Z(m)"   "P(bar)"     "T(C)"   "SatGas"   "SatLiq"     "aH2O"       "pH"        "t_na+"        "t_cl-"      "t_hco3-"       "t_ca+2"      "t_so4-2"       "t_mg+2"       "t_ba+2"       "t_al+3"     "t_h4sio4"         "t_k+"                                                                                                                                                                                                                                                                                                                                                                                                                                                                                                                                                                     
Zone T= "7.28842187E+02 yr" I=      9J=     10K=     23F=Point 
     125.0000     125.0000   -5425.0000  5.47693E+02  251.617  0.00000E+00  1.00000E+00  1.00001  6.0903  1.0822E-10  1.0133E-10  1.1431E-02  2.6655E-04  1.0002E-10  2.7341E-05  9.9714E-11  3.5300E-04  3.5465E-04  1.0064E-10                                                                                                                                                                                                                                                                                                                                                                                                                                                                                                                                                                                                
     375.0000     125.0000   -5425.0000  5.47693E+02  251.618  0.00000E+00  1.00000E+00  1.00001  6.0903  1.8642E-10  1.1377E-10  1.1432E-02  2.6655E-04  1.0517E-10  2.7341E-05  9.9713E-11  3.5300E-04  3.5465E-04  1.0649E-10                                                                                                                                                                                                                                                                                                                                                                                                                                                                                                                                                                                                
     625.0000     125.0000   -5425.0000  5.47690E+02  251.618  0.00000E+00  1.00000E+00  1.00001  6.0902  1.1780E-09  2.7156E-10  1.1432E-02  2.6655E-04  1.7039E-10  2.7341E-05  9.9713E-11  3.5300E-04  3.5465E-04  1.8064E-10                                                                                                                                                                                                                                                                                                                                                                                                                                                                                                                                                                                                
     760.0000     125.0000   -5425.0000  5.47687E+02  251.618  0.00000E+00  1.00000E+00  1.00001  6.0902  1.2009E-09  2.7520E-10  1.1432E-02  2.6655E-04  1.7189E-10  2.7341E-05  9.9713E-11  3.5300E-04  3.5465E-04  1.8236E-10                                                                                                                                                                                                                                                                                                                                                                                                                                                                                                                                                                                                
     780.0000     125.0000   -5425.0000  5.47687E+02  251.618  0.00000E+00  1.00000E+00  1.00001  6.0902  1.1678E-09  2.6993E-10  1.1432E-02  2.6655E-04  1.6971E-10  2.7341E-05  9.9713E-11  3.5300E-04  3.5465E-04  1.7988E-10                                                                                                                                                                                                                                                                                                                                                                                                                                                                                                                                                                                                
     800.0000     125.0000   -5425.0000  5.47686E+02  251.618  0.00000E+00  1.00000E+00  1.00001  6.0902  4.7898E-10  1.6033E-10  1.1432E-02  2.6655E-04  1.2441E-10  2.7341E-05  9.9713E-11  3.5300E-04  3.5465E-04  1.2837E-10                                                                                                                                                                                                                                                                                                                                                                                                                                                                                                                                                                                                
     935.0000     125.0000   -5425.0000  5.47683E+02  251.618  0.00000E+00  1.00000E+00  1.00001  6.0903  1.9505E-10  1.1515E-10  1.1432E-02  2.6655E-04  1.0573E-10  2.7341E-05  9.9714E-11  3.5300E-04  3.5465E-04  1.0714E-10                                                                                                                                                                                                                                                                                                                                                                                                                                                                                                                                                                                                
    1185.0000     125.0000   -5425.0000  5.47676E+02  251.618  0.00000E+00  1.00000E+00  1.00001  6.0903  1.1120E-10  1.0181E-10  1.1432E-02  2.6655E-04  1.0022E-10  2.7341E-05  9.9714E-11  3.5300E-04  3.5465E-04  1.0087E-10                                                                                                                                                                                                                                                                                                                                                                                                                                                                                                                                                                                                
    1435.0000     125.0000   -5425.0000  5.47670E+02  251.618  0.00000E+00  1.00000E+00  1.00001  6.0903  1.0084E-10  1.0016E-10  1.1432E-02  2.6655E-04  9.9539E-11  2.7341E-05  9.9715E-11  3.5300E-04  3.5465E-04  1.0009E-10                                                                                                                                                                                                                                                                                                                                                                                                                                                                                                                                                                                                
     125.0000     125.0000   -5225.0000  5.30982E+02  238.153  0.00000E+00  1.00000E+00  1.00001  6.2507  1.7177E-09  3.5747E-10  5.6666E-03  2.7286E-04  2.0817E-10  2.9140E-05  1.0042E-10  3.4939E-04  3.4716E-04  2.2102E-10                                                                                                                                                                                                                                                                                                                                                                                                                                                                                                                                                                                                
     375.0000     125.0000   -5225.0000  5.30982E+02  238.153  0.00000E+00  1.00000E+00  1.00001  6.2507  1.3522E-08  2.2361E-09  5.6665E-03  2.7285E-04  9.9258E-10  2.9139E-05  1.0042E-10  3.4939E-04  3.4717E-04  1.1038E-09                                                                                                                                                                                                                                                                                                                                                                                                                                                                                                                                                                                                
     625.0000     125.0000   -5225.0000  5.30980E+02  238.154  0.00000E+00  1.00000E+00  1.00001  6.2508  1.3432E-07  2.1459E-08  5.6669E-03  2.7274E-04  9.0218E-09  2.9128E-05  1.0042E-10  3.4934E-04  3.4729E-04  1.0137E-08                                                                                                                                                                                                                                                                                                                                                                                                                                                                                                                                                                                                
     760.0000     125.0000   -5225.0000  5.30976E+02  238.154  0.00000E+00  1.00000E+00  1.00001  6.2508  1.3643E-07  2.1795E-08  5.6669E-03  2.7274E-04  9.1623E-09  2.9128E-05  1.0042E-10  3.4934E-04  3.4729E-04  1.0295E-08                                                                                                                                                                                                                                                                                                                                                                                                                                                                                                                                                                                                
     780.0000     125.0000   -5225.0000  5.30975E+02  238.154  0.00000E+00  1.00000E+00  1.00001  6.2508  1.3226E-07  2.1132E-08  5.6669E-03  2.7275E-04  8.8852E-09  2.9129E-05  1.0042E-10  3.4935E-04  3.4728E-04  9.9838E-09                                                                                                                                                                                                                                                                                                                                                                                                                                                                                                                                                                                                
     800.0000     125.0000   -5225.0000  5.30975E+02  238.154  0.00000E+00  1.00000E+00  1.00001  6.2507  4.9057E-08  7.8909E-09  5.6669E-03  2.7282E-04  3.3545E-09  2.9136E-05  1.0042E-10  3.4938E-04  3.4720E-04  3.7613E-09                                                                                                                                                                                                                                                                                                                                                                                                                                                                                                                                                                                                
     935.0000     125.0000   -5225.0000  5.30971E+02  238.154  0.00000E+00  1.00000E+00  1.00001  6.2507  1.4658E-08  2.4168E-09  5.6669E-03  2.7285E-04  1.0681E-09  2.9139E-05  1.0042E-10  3.4939E-04  3.4717E-04  1.1887E-09                                                                                                                                                                                                                                                                                                                                                                                                                                                                                                                                                                                                
    1185.0000     125.0000   -5225.0000  5.30962E+02  238.156  0.00000E+00  1.00000E+00  1.00001  6.2506  2.2491E-09  4.4204E-10  5.6674E-03  2.7286E-04  2.4348E-10  2.9139E-05  1.0042E-10  3.4939E-04  3.4716E-04  2.6076E-10                                                                                                                                                                                                                                                                                                                                                                                                                                                                                                                                                                                                
    1435.0000     125.0000   -5225.0000  5.30955E+02  238.158  0.00000E+00  1.00000E+00  1.00001  6.2506  3.1724E-10  1.3461E-10  5.6681E-03  2.7286E-04  1.1513E-10  2.9139E-05  1.0042E-10  3.4939E-04  3.4716E-04  1.1628E-10                                                                                                                                                                                                                                                                                                                                                                                                                                                                                                                                                                                                
     125.0000     125.0000   -4975.0000  5.09785E+02  227.242  0.00000E+00  1.00000E+00  1.00001  6.3906  1.2969E-07  2.0722E-08  3.1868E-03  2.7565E-04  8.6810E-09  3.0525E-05  1.0013E-10  3.4323E-04  3.4238E-04  9.7910E-09                                                                                                                                                                                                                                                                                                                                                                                                                                                                                                                                                                                                
     375.0000     125.0000   -4975.0000  5.09788E+02  227.237  0.00000E+00  1.00000E+00  1.00001  6.3912  8.4235E-07  1.3413E-07  3.1862E-03  2.7501E-04  5.5871E-08  3.0460E-05  1.0009E-10  3.4294E-04  3.4305E-04  6.3087E-08                                                                                                                                                                                                                                                                                                                                                                                                                                                                                                                                                                                                
     625.0000     125.0000   -4975.0000  5.09788E+02  227.232  0.00000E+00  1.00000E+00  1.00001  6.3958  6.5909E-06  1.0489E-06  3.1875E-03  2.6958E-04  4.3664E-07  2.9905E-05  1.0001E-10  3.3994E-04  3.4946E-04  4.9298E-07                                                                                                                                                                                                                                                                                                                                                                                                                                                                                                                                                                                                
     760.0000     125.0000   -4975.0000  5.09782E+02  227.232  0.00000E+00  1.00000E+00  1.00001  6.3958  6.6747E-06  1.0623E-06  3.1875E-03  2.6959E-04  4.4219E-07  2.9906E-05  1.0001E-10  3.4012E-04  3.4928E-04  4.9925E-07                                                                                                                                                                                                                                                                                                                                                                                                                                                                                                                                                                                                
     780.0000     125.0000   -4975.0000  5.09781E+02  227.232  0.00000E+00  1.00000E+00  1.00001  6.3956  6.4660E-06  1.0290E-06  3.1874E-03  2.6984E-04  4.2836E-07  2.9932E-05  1.0001E-10  3.4038E-04  3.4886E-04  4.8365E-07                                                                                                                                                                                                                                                                                                                                                                                                                                                                                                                                                                                                
     800.0000     125.0000   -4975.0000  5.09780E+02  227.237  0.00000E+00  1.00000E+00  1.00001  6.3925  2.5558E-06  4.0680E-07  3.1868E-03  2.7346E-04  1.6936E-07  3.0302E-05  1.0006E-10  3.4223E-04  3.4471E-04  1.9123E-07                                                                                                                                                                                                                                                                                                                                                                                                                                                                                                                                                                                                
     935.0000     125.0000   -4975.0000  5.09773E+02  227.240  0.00000E+00  1.00000E+00  1.00001  6.3912  9.0289E-07  1.4376E-07  3.1866E-03  2.7494E-04  5.9881E-08  3.0453E-05  1.0008E-10  3.4289E-04  3.4315E-04  6.7614E-08                                                                                                                                                                                                                                                                                                                                                                                                                                                                                                                                                                                                
    1185.0000     125.0000   -4975.0000  5.09757E+02  227.249  0.00000E+00  1.00000E+00  1.00001  6.3905  1.7172E-07  2.7410E-08  3.1879E-03  2.7561E-04  1.1465E-08  3.0520E-05  1.0014E-10  3.4321E-04  3.4242E-04  1.2934E-08                                                                                                                                                                                                                                                                                                                                                                                                                                                                                                                                                                                                
    1435.0000     125.0000   -4975.0000  5.09743E+02  227.258  0.00000E+00  1.00000E+00  1.00001  6.3903  2.5358E-08  4.1193E-09  3.1894E-03  2.7573E-04  1.7729E-09  3.0531E-05  1.0015E-10  3.4326E-04  3.4231E-04  1.9889E-09                                                                                                                                                                                                                                                                                                                                                                                                                                                                                                                                                                                                
     125.0000     125.0000   -4725.0000  4.88319E+02  215.806  0.00000E+00  1.00000E+00  1.00001  6.5497  3.4650E-06  5.5146E-07  1.7560E-03  2.7293E-04  2.2905E-07  3.1560E-05  9.6381E-11  3.3399E-04  3.3931E-04  2.5921E-07                                                                                                                                                                                                                                                                                                                                                                                                                                                                                                                                                                                                
     375.0000     125.0000   -4725.0000  4.88324E+02  215.400  0.00000E+00  1.00000E+00  1.00001  6.5660  1.7379E-05  2.7656E-06  1.7253E-03  2.6042E-04  1.1479E-06  3.0262E-05  9.5197E-11  3.2746E-04  3.5361E-04  1.2997E-06                                                                                                                                                                                                                                                                                                                                                                                                                                                                                                                                                                                                
     625.0000     125.0000   -4725.0000  4.88324E+02  214.703  0.00000E+00  1.00000E+00  1.00001  6.6557  1.0248E-04  1.6308E-05  1.7121E-03  1.8349E-04  6.7711E-06  2.1936E-05  9.3478E-11  2.7386E-04  5.0317E-04  7.6637E-06                                                                                                                                                                                                                                                                                                                                                                                                                                                                                                                                                                                                
     760.0000     125.0000   -4725.0000  4.88316E+02  214.672  0.00000E+00  1.00000E+00  1.00001  6.6557  1.0316E-04  1.6416E-05  1.7092E-03  1.8394E-04  6.8156E-06  2.1990E-05  9.3411E-11  2.7659E-04  4.9762E-04  7.7145E-06                                                                                                                                                                                                                                                                                                                                                                                                                                                                                                                                                                                                
     780.0000     125.0000   -4725.0000  4.88315E+02  214.655  0.00000E+00  1.00000E+00  1.00001  6.6515  9.9575E-05  1.5845E-05  1.7049E-03  1.8750E-04  6.5785E-06  2.2384E-05  9.3519E-11  2.8049E-04  4.8591E-04  7.4466E-06                                                                                                                                                                                                                                                                                                                                                                                                                                                                                                                                                                                                
     800.0000     125.0000   -4725.0000  4.88313E+02  215.188  0.00000E+00  1.00000E+00  1.00001  6.5913  4.3409E-05  6.9077E-06  1.7189E-03  2.3594E-04  2.8677E-06  2.7634E-05  9.4541E-11  3.1152E-04  3.9005E-04  3.2463E-06                                                                                                                                                                                                                                                                                                                                                                                                                                                                                                                                                                                                
     935.0000     125.0000   -4725.0000  4.88303E+02  215.450  0.00000E+00  1.00000E+00  1.00001  6.5663  1.8409E-05  2.9295E-06  1.7302E-03  2.5920E-04  1.2161E-06  3.0124E-05  9.5141E-11  3.2622E-04  3.5584E-04  1.3768E-06                                                                                                                                                                                                                                                                                                                                                                                                                                                                                                                                                                                                
    1185.0000     125.0000   -4725.0000  4.88277E+02  215.928  0.00000E+00  1.00000E+00  1.00001  6.5490  4.6838E-06  7.4542E-07  1.7674E-03  2.7171E-04  3.0965E-07  3.1414E-05  9.6586E-11  3.3328E-04  3.4095E-04  3.5036E-07                                                                                                                                                                                                                                                                                                                                                                                                                                                                                                                                                                                                