Title="TOUGHREACT V3.30-OMP: Aqueous Total & Species Concentrations in mol/kg h2o, Surface & Exchanged Species in mol/kg h2o, Dry blocks in mol/L medium"                                                                                                                                                                                                                                                                                                                                                                                                                                                                                                                                                                                                                                                                       
Variables= "X(m)"   "Y(m)"   "Z(m)"   "P(bar)"     "T(C)"   "SatGas"   "SatLiq"     "aH2O"       "pH"        "t_na+"        "t_cl-"      "t_hco3-"       "t_ca+2"      "t_so4-2"       "t_mg+2"       "t_ba+2"       "t_al+3"     "t_h4sio4"         "t_k+"                                                                                                                                                                                                                                                                                                                                                                                                                                                                                                                                                                     
Zone T= "1.79675443E+03 yr" I=      9J=     10K=     23F=Point 
     125.0000     125.0000   -5425.0000  5.47733E+02  258.559  0.00000E+00  1.00000E+00  1.00001  6.0128  1.0862E-10  1.0139E-10  1.6299E-02  2.6222E-04  9.8409E-11  2.6378E-05  9.8773E-11  3.5330E-04  3.5975E-04  1.0067E-10                                                                                                                                                                                                                                                                                                                                                                                                                                                                                                                                                                                                
     375.0000     125.0000   -5425.0000  5.47733E+02  258.559  0.00000E+00  1.00000E+00  1.00001  6.0128  1.8965E-10  1.1428E-10  1.6299E-02  2.6222E-04  1.0365E-10  2.6378E-05  9.8772E-11  3.5330E-04  3.5975E-04  1.0673E-10                                                                                                                                                                                                                                                                                                                                                                                                                                                                                                                                                                                                
     625.0000     125.0000   -5425.0000  5.47733E+02  258.560  0.00000E+00  1.00000E+00  1.00001  6.0128  1.2082E-09  2.7631E-10  1.6300E-02  2.6222E-04  1.6958E-10  2.6377E-05  9.8772E-11  3.5330E-04  3.5975E-04  1.8289E-10                                                                                                                                                                                                                                                                                                                                                                                                                                                                                                                                                                                                
     760.0000     125.0000   -5425.0000  5.47733E+02  258.560  0.00000E+00  1.00000E+00  1.00001  6.0128  1.2310E-09  2.7993E-10  1.6300E-02  2.6222E-04  1.7105E-10  2.6377E-05  9.8772E-11  3.5330E-04  3.5975E-04  1.8459E-10                                                                                                                                                                                                                                                                                                                                                                                                                                                                                                                                                                                                
     780.0000     125.0000   -5425.0000  5.47732E+02  258.560  0.00000E+00  1.00000E+00  1.00001  6.0128  1.1871E-09  2.7295E-10  1.6300E-02  2.6222E-04  1.6821E-10  2.6377E-05  9.8772E-11  3.5330E-04  3.5975E-04  1.8131E-10                                                                                                                                                                                                                                                                                                                                                                                                                                                                                                                                                                                                
     800.0000     125.0000   -5425.0000  5.47732E+02  258.560  0.00000E+00  1.00000E+00  1.00001  6.0128  5.0727E-10  1.6480E-10  1.6300E-02  2.6222E-04  1.2421E-10  2.6378E-05  9.8772E-11  3.5330E-04  3.5975E-04  1.3048E-10                                                                                                                                                                                                                                                                                                                                                                                                                                                                                                                                                                                                
     935.0000     125.0000   -5425.0000  5.47731E+02  258.560  0.00000E+00  1.00000E+00  1.00001  6.0128  1.9873E-10  1.1572E-10  1.6300E-02  2.6222E-04  1.0424E-10  2.6378E-05  9.8773E-11  3.5330E-04  3.5975E-04  1.0741E-10                                                                                                                                                                                                                                                                                                                                                                                                                                                                                                                                                                                                
    1185.0000     125.0000   -5425.0000  5.47729E+02  258.559  0.00000E+00  1.00000E+00  1.00001  6.0128  1.1181E-10  1.0189E-10  1.6299E-02  2.6222E-04  9.8616E-11  2.6378E-05  9.8774E-11  3.5330E-04  3.5975E-04  1.0091E-10                                                                                                                                                                                                                                                                                                                                                                                                                                                                                                                                                                                                
    1435.0000     125.0000   -5425.0000  5.47727E+02  258.560  0.00000E+00  1.00000E+00  1.00001  6.0128  1.0091E-10  1.0016E-10  1.6300E-02  2.6222E-04  9.7912E-11  2.6378E-05  9.8775E-11  3.5330E-04  3.5975E-04  1.0010E-10                                                                                                                                                                                                                                                                                                                                                                                                                                                                                                                                                                                                
     125.0000     125.0000   -5225.0000  5.31101E+02  238.182  0.00000E+00  1.00000E+00  1.00001  6.2506  1.7263E-09  3.5887E-10  5.6755E-03  2.7248E-04  2.1068E-10  2.9099E-05  1.0096E-10  3.5109E-04  3.4575E-04  2.2167E-10                                                                                                                                                                                                                                                                                                                                                                                                                                                                                                                                                                                                
     375.0000     125.0000   -5225.0000  5.31102E+02  238.182  0.00000E+00  1.00000E+00  1.00001  6.2506  1.3559E-08  2.2420E-09  5.6753E-03  2.7247E-04  1.0043E-09  2.9098E-05  1.0096E-10  3.5109E-04  3.4576E-04  1.1066E-09                                                                                                                                                                                                                                                                                                                                                                                                                                                                                                                                                                                                
     625.0000     125.0000   -5225.0000  5.31103E+02  238.182  0.00000E+00  1.00000E+00  1.00001  6.2507  1.3421E-07  2.1445E-08  5.6755E-03  2.7237E-04  9.0993E-09  2.9088E-05  1.0095E-10  3.5104E-04  3.4587E-04  1.0130E-08                                                                                                                                                                                                                                                                                                                                                                                                                                                                                                                                                                                                
     760.0000     125.0000   -5225.0000  5.31102E+02  238.183  0.00000E+00  1.00000E+00  1.00001  6.2507  1.3623E-07  2.1766E-08  5.6756E-03  2.7236E-04  9.2348E-09  2.9087E-05  1.0095E-10  3.5104E-04  3.4587E-04  1.0281E-08                                                                                                                                                                                                                                                                                                                                                                                                                                                                                                                                                                                                
     780.0000     125.0000   -5225.0000  5.31101E+02  238.183  0.00000E+00  1.00000E+00  1.00001  6.2507  1.3092E-07  2.0921E-08  5.6756E-03  2.7237E-04  8.8787E-09  2.9088E-05  1.0095E-10  3.5104E-04  3.4586E-04  9.8844E-09                                                                                                                                                                                                                                                                                                                                                                                                                                                                                                                                                                                                
     800.0000     125.0000   -5225.0000  5.31101E+02  238.183  0.00000E+00  1.00000E+00  1.00001  6.2507  5.1164E-08  8.2271E-09  5.6757E-03  2.7244E-04  3.5273E-09  2.9095E-05  1.0095E-10  3.5107E-04  3.4579E-04  3.9191E-09                                                                                                                                                                                                                                                                                                                                                                                                                                                                                                                                                                                                
     935.0000     125.0000   -5225.0000  5.31100E+02  238.183  0.00000E+00  1.00000E+00  1.00001  6.2506  1.4716E-08  2.4263E-09  5.6758E-03  2.7247E-04  1.0820E-09  2.9098E-05  1.0096E-10  3.5109E-04  3.4576E-04  1.1932E-09                                                                                                                                                                                                                                                                                                                                                                                                                                                                                                                                                                                                
    1185.0000     125.0000   -5225.0000  5.31097E+02  238.187  0.00000E+00  1.00000E+00  1.00001  6.2506  2.2718E-09  4.4570E-10  5.6768E-03  2.7248E-04  2.4727E-10  2.9099E-05  1.0096E-10  3.5109E-04  3.4575E-04  2.6247E-10                                                                                                                                                                                                                                                                                                                                                                                                                                                                                                                                                                                                
    1435.0000     125.0000   -5225.0000  5.31094E+02  238.190  0.00000E+00  1.00000E+00  1.00001  6.2505  3.2064E-10  1.3516E-10  5.6778E-03  2.7248E-04  1.1642E-10  2.9098E-05  1.0096E-10  3.5109E-04  3.4575E-04  1.1654E-10                                                                                                                                                                                                                                                                                                                                                                                                                                                                                                                                                                                                
     125.0000     125.0000   -4975.0000  5.09901E+02  227.263  0.00000E+00  1.00000E+00  1.00001  6.3905  1.2984E-07  2.0746E-08  3.1903E-03  2.7547E-04  8.7232E-09  3.0504E-05  1.0035E-10  3.4401E-04  3.4173E-04  9.8023E-09                                                                                                                                                                                                                                                                                                                                                                                                                                                                                                                                                                                                
     375.0000     125.0000   -4975.0000  5.09904E+02  227.257  0.00000E+00  1.00000E+00  1.00001  6.3911  8.4291E-07  1.3422E-07  3.1895E-03  2.7483E-04  5.6116E-08  3.0439E-05  1.0031E-10  3.4371E-04  3.4241E-04  6.3130E-08                                                                                                                                                                                                                                                                                                                                                                                                                                                                                                                                                                                                
     625.0000     125.0000   -4975.0000  5.09907E+02  227.249  0.00000E+00  1.00000E+00  1.00001  6.3957  6.5634E-06  1.0446E-06  3.1906E-03  2.6943E-04  4.3637E-07  2.9888E-05  1.0022E-10  3.4069E-04  3.4881E-04  4.9094E-07                                                                                                                                                                                                                                                                                                                                                                                                                                                                                                                                                                                                
     760.0000     125.0000   -4975.0000  5.09905E+02  227.250  0.00000E+00  1.00000E+00  1.00001  6.3957  6.6404E-06  1.0568E-06  3.1907E-03  2.6944E-04  4.4149E-07  2.9889E-05  1.0022E-10  3.4087E-04  3.4863E-04  4.9670E-07                                                                                                                                                                                                                                                                                                                                                                                                                                                                                                                                                                                                
     780.0000     125.0000   -4975.0000  5.09904E+02  227.250  0.00000E+00  1.00000E+00  1.00001  6.3954  6.3816E-06  1.0156E-06  3.1906E-03  2.6974E-04  4.2428E-07  2.9920E-05  1.0022E-10  3.4116E-04  3.4815E-04  4.7734E-07                                                                                                                                                                                                                                                                                                                                                                                                                                                                                                                                                                                                
     800.0000     125.0000   -4975.0000  5.09904E+02  227.256  0.00000E+00  1.00000E+00  1.00001  6.3925  2.6751E-06  4.2580E-07  3.1901E-03  2.7317E-04  1.7791E-07  3.0270E-05  1.0027E-10  3.4294E-04  3.4421E-04  2.0015E-07                                                                                                                                                                                                                                                                                                                                                                                                                                                                                                                                                                                                
     935.0000     125.0000   -4975.0000  5.09901E+02  227.260  0.00000E+00  1.00000E+00  1.00001  6.3911  9.0338E-07  1.4385E-07  3.1901E-03  2.7476E-04  6.0136E-08  3.0432E-05  1.0030E-10  3.4366E-04  3.4251E-04  6.7652E-08                                                                                                                                                                                                                                                                                                                                                                                                                                                                                                                                                                                                
    1185.0000     125.0000   -4975.0000  5.09896E+02  227.272  0.00000E+00  1.00000E+00  1.00001  6.3904  1.7282E-07  2.7587E-08  3.1918E-03  2.7543E-04  1.1581E-08  3.0498E-05  1.0036E-10  3.4400E-04  3.4178E-04  1.3017E-08                                                                                                                                                                                                                                                                                                                                                                                                                                                                                                                                                                                                
    1435.0000     125.0000   -4975.0000  5.09892E+02  227.284  0.00000E+00  1.00000E+00  1.00001  6.3901  2.5557E-08  4.1512E-09  3.1938E-03  2.7555E-04  1.7928E-09  3.0509E-05  1.0037E-10  3.4405E-04  3.4167E-04  2.0038E-09                                                                                                                                                                                                                                                                                                                                                                                                                                                                                                                                                                                                
     125.0000     125.0000   -4725.0000  4.88431E+02  215.831  0.00000E+00  1.00000E+00  1.00001  6.5494  3.4510E-06  5.4924E-07  1.7582E-03  2.7288E-04  2.2838E-07  3.1552E-05  9.6490E-11  3.3428E-04  3.3908E-04  2.5816E-07                                                                                                                                                                                                                                                                                                                                                                                                                                                                                                                                                                                                
     375.0000     125.0000   -4725.0000  4.88432E+02  215.422  0.00000E+00  1.00000E+00  1.00001  6.5657  1.7312E-05  2.7549E-06  1.7272E-03  2.6042E-04  1.1446E-06  3.0259E-05  9.5295E-11  3.2772E-04  3.5336E-04  1.2947E-06                                                                                                                                                                                                                                                                                                                                                                                                                                                                                                                                                                                                
     625.0000     125.0000   -4725.0000  4.88434E+02  214.720  0.00000E+00  1.00000E+00  1.00001  6.6551  1.0201E-04  1.6233E-05  1.7133E-03  1.8380E-04  6.7437E-06  2.1969E-05  9.3548E-11  2.7413E-04  5.0226E-04  7.6288E-06                                                                                                                                                                                                                                                                                                                                                                                                                                                                                                                                                                                                
     760.0000     125.0000   -4725.0000  4.88433E+02  214.686  0.00000E+00  1.00000E+00  1.00001  6.6550  1.0260E-04  1.6326E-05  1.7101E-03  1.8432E-04  6.7820E-06  2.2030E-05  9.3470E-11  2.7686E-04  4.9664E-04  7.6725E-06                                                                                                                                                                                                                                                                                                                                                                                                                                                                                                                                                                                                
     780.0000     125.0000   -4725.0000  4.88432E+02  214.667  0.00000E+00  1.00000E+00  1.00001  6.6503  9.8320E-05  1.5646E-05  1.7052E-03  1.8839E-04  6.4990E-06  2.2482E-05  9.3582E-11  2.8099E-04  4.8386E-04  7.3528E-06                                                                                                                                                                                                                                                                                                                                                                                                                                                                                                                                                                                                
     800.0000     125.0000   -4725.0000  4.88432E+02  215.206  0.00000E+00  1.00000E+00  1.00001  6.5927  4.5132E-05  7.1819E-06  1.7214E-03  2.3425E-04  2.9840E-06  2.7449E-05  9.4605E-11  3.1054E-04  3.9273E-04  3.3752E-06                                                                                                                                                                                                                                                                                                                                                                                                                                                                                                                                                                                                
     935.0000     125.0000   -4725.0000  4.88430E+02  215.473  0.00000E+00  1.00000E+00  1.00001  6.5660  1.8364E-05  2.9224E-06  1.7323E-03  2.5918E-04  1.2143E-06  3.0119E-05  9.5247E-11  3.2648E-04  3.5560E-04  1.3734E-06                                                                                                                                                                                                                                                                                                                                                                                                                                                                                                                                                                                                
    1185.0000     125.0000   -4725.0000  4.88426E+02  215.956  0.00000E+00  1.00000E+00  1.00001  6.5486  4.6904E-06  7.4647E-07  1.7700E-03  2.7165E-04  3.1042E-07  3.1404E-05  9.6706E-11  3.3357E-04  3.4074E-04  3.5085E-07                                                                                                                                                                                                                                                                                                                                                                                                                                                                                                                                                                                                