Title="TOUGHREACT V3.30-OMP: Aqueous Total & Species Concentrations in mol/kg h2o, Surface & Exchanged Species in mol/kg h2o, Dry blocks in mol/L medium"                                                                                                                                                                                                                                                                                                                                                                                                                                                                                                                                                                                                                                                                       
Variables= "X(m)"   "Y(m)"   "Z(m)"   "P(bar)"     "T(C)"   "SatGas"   "SatLiq"     "aH2O"       "pH"        "t_na+"        "t_cl-"      "t_hco3-"       "t_ca+2"      "t_so4-2"       "t_mg+2"       "t_ba+2"       "t_al+3"     "t_h4sio4"         "t_k+"                                                                                                                                                                                                                                                                                                                                                                                                                                                                                                                                                                     
Zone T= "9.50663722E+02 yr" I=      9J=     10K=     23F=Point 
     125.0000     125.0000   -5425.0000  5.47789E+02  253.059  0.00000E+00  1.00000E+00  1.00001  6.0739  1.0830E-10  1.0134E-10  1.2311E-02  2.6570E-04  9.9746E-11  2.7142E-05  9.9552E-11  3.5314E-04  3.5563E-04  1.0065E-10                                                                                                                                                                                                                                                                                                                                                                                                                                                                                                                                                                                                
     375.0000     125.0000   -5425.0000  5.47789E+02  253.060  0.00000E+00  1.00000E+00  1.00001  6.0739  1.8709E-10  1.1388E-10  1.2311E-02  2.6570E-04  1.0491E-10  2.7142E-05  9.9552E-11  3.5314E-04  3.5563E-04  1.0654E-10                                                                                                                                                                                                                                                                                                                                                                                                                                                                                                                                                                                                
     625.0000     125.0000   -5425.0000  5.47787E+02  253.060  0.00000E+00  1.00000E+00  1.00001  6.0739  1.1842E-09  2.7254E-10  1.2312E-02  2.6570E-04  1.7031E-10  2.7142E-05  9.9551E-11  3.5314E-04  3.5563E-04  1.8110E-10                                                                                                                                                                                                                                                                                                                                                                                                                                                                                                                                                                                                
     760.0000     125.0000   -5425.0000  5.47785E+02  253.060  0.00000E+00  1.00000E+00  1.00001  6.0739  1.2071E-09  2.7618E-10  1.2312E-02  2.6570E-04  1.7182E-10  2.7142E-05  9.9552E-11  3.5314E-04  3.5563E-04  1.8282E-10                                                                                                                                                                                                                                                                                                                                                                                                                                                                                                                                                                                                
     780.0000     125.0000   -5425.0000  5.47785E+02  253.060  0.00000E+00  1.00000E+00  1.00001  6.0739  1.1718E-09  2.7056E-10  1.2312E-02  2.6570E-04  1.6950E-10  2.7142E-05  9.9552E-11  3.5314E-04  3.5563E-04  1.8017E-10                                                                                                                                                                                                                                                                                                                                                                                                                                                                                                                                                                                                
     800.0000     125.0000   -5425.0000  5.47785E+02  253.060  0.00000E+00  1.00000E+00  1.00001  6.0739  4.8558E-10  1.6137E-10  1.2312E-02  2.6570E-04  1.2449E-10  2.7142E-05  9.9552E-11  3.5314E-04  3.5563E-04  1.2886E-10                                                                                                                                                                                                                                                                                                                                                                                                                                                                                                                                                                                                
     935.0000     125.0000   -5425.0000  5.47782E+02  253.060  0.00000E+00  1.00000E+00  1.00001  6.0739  1.9584E-10  1.1527E-10  1.2312E-02  2.6570E-04  1.0549E-10  2.7142E-05  9.9552E-11  3.5314E-04  3.5563E-04  1.0720E-10                                                                                                                                                                                                                                                                                                                                                                                                                                                                                                                                                                                                
    1185.0000     125.0000   -5425.0000  5.47777E+02  253.060  0.00000E+00  1.00000E+00  1.00001  6.0739  1.1134E-10  1.0183E-10  1.2311E-02  2.6570E-04  9.9945E-11  2.7142E-05  9.9553E-11  3.5314E-04  3.5563E-04  1.0088E-10                                                                                                                                                                                                                                                                                                                                                                                                                                                                                                                                                                                                
    1435.0000     125.0000   -5425.0000  5.47774E+02  253.060  0.00000E+00  1.00000E+00  1.00001  6.0739  1.0085E-10  1.0016E-10  1.2312E-02  2.6570E-04  9.9259E-11  2.7142E-05  9.9554E-11  3.5314E-04  3.5562E-04  1.0009E-10                                                                                                                                                                                                                                                                                                                                                                                                                                                                                                                                                                                                
     125.0000     125.0000   -5225.0000  5.31093E+02  238.158  0.00000E+00  1.00000E+00  1.00001  6.2507  1.7194E-09  3.5774E-10  5.6682E-03  2.7278E-04  2.0868E-10  2.9131E-05  1.0053E-10  3.4974E-04  3.4686E-04  2.2114E-10                                                                                                                                                                                                                                                                                                                                                                                                                                                                                                                                                                                                
     375.0000     125.0000   -5225.0000  5.31093E+02  238.158  0.00000E+00  1.00000E+00  1.00001  6.2507  1.3530E-08  2.2373E-09  5.6682E-03  2.7277E-04  9.9502E-10  2.9130E-05  1.0053E-10  3.4974E-04  3.4688E-04  1.1044E-09                                                                                                                                                                                                                                                                                                                                                                                                                                                                                                                                                                                                
     625.0000     125.0000   -5225.0000  5.31092E+02  238.159  0.00000E+00  1.00000E+00  1.00001  6.2508  1.3429E-07  2.1456E-08  5.6685E-03  2.7267E-04  9.0378E-09  2.9120E-05  1.0053E-10  3.4969E-04  3.4699E-04  1.0136E-08                                                                                                                                                                                                                                                                                                                                                                                                                                                                                                                                                                                                
     760.0000     125.0000   -5225.0000  5.31090E+02  238.159  0.00000E+00  1.00000E+00  1.00001  6.2508  1.3639E-07  2.1789E-08  5.6686E-03  2.7266E-04  9.1774E-09  2.9120E-05  1.0053E-10  3.4969E-04  3.4699E-04  1.0293E-08                                                                                                                                                                                                                                                                                                                                                                                                                                                                                                                                                                                                
     780.0000     125.0000   -5225.0000  5.31090E+02  238.159  0.00000E+00  1.00000E+00  1.00001  6.2508  1.3198E-07  2.1088E-08  5.6686E-03  2.7267E-04  8.8839E-09  2.9120E-05  1.0053E-10  3.4970E-04  3.4698E-04  9.9631E-09                                                                                                                                                                                                                                                                                                                                                                                                                                                                                                                                                                                                
     800.0000     125.0000   -5225.0000  5.31089E+02  238.159  0.00000E+00  1.00000E+00  1.00001  6.2507  4.9604E-08  7.9783E-09  5.6686E-03  2.7274E-04  3.3975E-09  2.9127E-05  1.0053E-10  3.4973E-04  3.4691E-04  3.8023E-09                                                                                                                                                                                                                                                                                                                                                                                                                                                                                                                                                                                                
     935.0000     125.0000   -5225.0000  5.31086E+02  238.160  0.00000E+00  1.00000E+00  1.00001  6.2507  1.4674E-08  2.4194E-09  5.6686E-03  2.7277E-04  1.0712E-09  2.9130E-05  1.0053E-10  3.4974E-04  3.4688E-04  1.1900E-09                                                                                                                                                                                                                                                                                                                                                                                                                                                                                                                                                                                                
    1185.0000     125.0000   -5225.0000  5.31080E+02  238.162  0.00000E+00  1.00000E+00  1.00001  6.2506  2.2556E-09  4.4308E-10  5.6693E-03  2.7278E-04  2.4439E-10  2.9131E-05  1.0053E-10  3.4975E-04  3.4687E-04  2.6125E-10                                                                                                                                                                                                                                                                                                                                                                                                                                                                                                                                                                                                
    1435.0000     125.0000   -5225.0000  5.31075E+02  238.164  0.00000E+00  1.00000E+00  1.00001  6.2506  3.1815E-10  1.3475E-10  5.6701E-03  2.7278E-04  1.1541E-10  2.9131E-05  1.0053E-10  3.4975E-04  3.4687E-04  1.1635E-10                                                                                                                                                                                                                                                                                                                                                                                                                                                                                                                                                                                                
     125.0000     125.0000   -4975.0000  5.09894E+02  227.247  0.00000E+00  1.00000E+00  1.00001  6.3906  1.2973E-07  2.0728E-08  3.1875E-03  2.7561E-04  8.6905E-09  3.0520E-05  1.0018E-10  3.4339E-04  3.4224E-04  9.7941E-09                                                                                                                                                                                                                                                                                                                                                                                                                                                                                                                                                                                                
     375.0000     125.0000   -4975.0000  5.09897E+02  227.242  0.00000E+00  1.00000E+00  1.00001  6.3912  8.4228E-07  1.3412E-07  3.1869E-03  2.7497E-04  5.5909E-08  3.0455E-05  1.0013E-10  3.4310E-04  3.4292E-04  6.3082E-08                                                                                                                                                                                                                                                                                                                                                                                                                                                                                                                                                                                                
     625.0000     125.0000   -4975.0000  5.09898E+02  227.236  0.00000E+00  1.00000E+00  1.00001  6.3958  6.5855E-06  1.0481E-06  3.1882E-03  2.6955E-04  4.3661E-07  2.9902E-05  1.0005E-10  3.4009E-04  3.4933E-04  4.9259E-07                                                                                                                                                                                                                                                                                                                                                                                                                                                                                                                                                                                                
     760.0000     125.0000   -4975.0000  5.09894E+02  227.236  0.00000E+00  1.00000E+00  1.00001  6.3958  6.6676E-06  1.0611E-06  3.1883E-03  2.6956E-04  4.4205E-07  2.9902E-05  1.0005E-10  3.4027E-04  3.4915E-04  4.9872E-07                                                                                                                                                                                                                                                                                                                                                                                                                                                                                                                                                                                                
     780.0000     125.0000   -4975.0000  5.09893E+02  227.236  0.00000E+00  1.00000E+00  1.00001  6.3955  6.4486E-06  1.0263E-06  3.1881E-03  2.6982E-04  4.2752E-07  2.9929E-05  1.0005E-10  3.4054E-04  3.4871E-04  4.8234E-07                                                                                                                                                                                                                                                                                                                                                                                                                                                                                                                                                                                                
     800.0000     125.0000   -4975.0000  5.09893E+02  227.241  0.00000E+00  1.00000E+00  1.00001  6.3925  2.5886E-06  4.1201E-07  3.1876E-03  2.7339E-04  1.7166E-07  3.0294E-05  1.0010E-10  3.4238E-04  3.4462E-04  1.9368E-07                                                                                                                                                                                                                                                                                                                                                                                                                                                                                                                                                                                                
     935.0000     125.0000   -4975.0000  5.09888E+02  227.244  0.00000E+00  1.00000E+00  1.00001  6.3912  9.0335E-07  1.4384E-07  3.1874E-03  2.7491E-04  5.9958E-08  3.0448E-05  1.0013E-10  3.4305E-04  3.4301E-04  6.7648E-08                                                                                                                                                                                                                                                                                                                                                                                                                                                                                                                                                                                                
    1185.0000     125.0000   -4975.0000  5.09877E+02  227.254  0.00000E+00  1.00000E+00  1.00001  6.3905  1.7214E-07  2.7477E-08  3.1888E-03  2.7557E-04  1.1502E-08  3.0515E-05  1.0018E-10  3.4338E-04  3.4229E-04  1.2966E-08                                                                                                                                                                                                                                                                                                                                                                                                                                                                                                                                                                                                
    1435.0000     125.0000   -4975.0000  5.09867E+02  227.265  0.00000E+00  1.00000E+00  1.00001  6.3903  2.5430E-08  4.1308E-09  3.1905E-03  2.7569E-04  1.7790E-09  3.0526E-05  1.0020E-10  3.4342E-04  3.4218E-04  1.9943E-09                                                                                                                                                                                                                                                                                                                                                                                                                                                                                                                                                                                                
     125.0000     125.0000   -4725.0000  4.88426E+02  215.812  0.00000E+00  1.00000E+00  1.00001  6.5496  3.4632E-06  5.5118E-07  1.7564E-03  2.7292E-04  2.2898E-07  3.1558E-05  9.6403E-11  3.3405E-04  3.3926E-04  2.5907E-07                                                                                                                                                                                                                                                                                                                                                                                                                                                                                                                                                                                                
     375.0000     125.0000   -4725.0000  4.88428E+02  215.405  0.00000E+00  1.00000E+00  1.00001  6.5659  1.7366E-05  2.7635E-06  1.7257E-03  2.6042E-04  1.1473E-06  3.0261E-05  9.5216E-11  3.2751E-04  3.5356E-04  1.2988E-06                                                                                                                                                                                                                                                                                                                                                                                                                                                                                                                                                                                                
     625.0000     125.0000   -4725.0000  4.88429E+02  214.706  0.00000E+00  1.00000E+00  1.00001  6.6556  1.0239E-04  1.6294E-05  1.7123E-03  1.8354E-04  6.7661E-06  2.1942E-05  9.3490E-11  2.7391E-04  5.0300E-04  7.6572E-06                                                                                                                                                                                                                                                                                                                                                                                                                                                                                                                                                                                                
     760.0000     125.0000   -4725.0000  4.88424E+02  214.673  0.00000E+00  1.00000E+00  1.00001  6.6556  1.0303E-04  1.6396E-05  1.7092E-03  1.8402E-04  6.8082E-06  2.1998E-05  9.3414E-11  2.7662E-04  4.9746E-04  7.7053E-06                                                                                                                                                                                                                                                                                                                                                                                                                                                                                                                                                                                                
     780.0000     125.0000   -4725.0000  4.88423E+02  214.654  0.00000E+00  1.00000E+00  1.00001  6.6513  9.9311E-05  1.5803E-05  1.7047E-03  1.8768E-04  6.5618E-06  2.2404E-05  9.3521E-11  2.8056E-04  4.8554E-04  7.4268E-06                                                                                                                                                                                                                                                                                                                                                                                                                                                                                                                                                                                                
     800.0000     125.0000   -4725.0000  4.88422E+02  215.192  0.00000E+00  1.00000E+00  1.00001  6.5918  4.3988E-05  6.9999E-06  1.7195E-03  2.3538E-04  2.9065E-06  2.7573E-05  9.4550E-11  3.1117E-04  3.9096E-04  3.2896E-06                                                                                                                                                                                                                                                                                                                                                                                                                                                                                                                                                                                                
     935.0000     125.0000   -4725.0000  4.88416E+02  215.455  0.00000E+00  1.00000E+00  1.00001  6.5663  1.8411E-05  2.9298E-06  1.7307E-03  2.5918E-04  1.2164E-06  3.0122E-05  9.5163E-11  3.2627E-04  3.5580E-04  1.3769E-06                                                                                                                                                                                                                                                                                                                                                                                                                                                                                                                                                                                                
    1185.0000     125.0000   -4725.0000  4.88400E+02  215.934  0.00000E+00  1.00000E+00  1.00001  6.5489  4.6928E-06  7.4685E-07  1.7681E-03  2.7169E-04  3.1031E-07  3.1411E-05  9.6613E-11  3.3334E-04  3.4091E-04  3.5103E-07                                                                                                                                                                                                                                                                                                                                                                                                                                                                                                                                                                                                