Title="TOUGHREACT V3.30-OMP: Aqueous Total & Species Concentrations in mol/kg h2o, Surface & Exchanged Species in mol/kg h2o, Dry blocks in mol/L medium"                                                                                                                                                                                                                                                                                                                                                                                                                                                                                                                                                                                                                                                                       
Variables= "X(m)"   "Y(m)"   "Z(m)"   "P(bar)"     "T(C)"   "SatGas"   "SatLiq"     "aH2O"       "pH"        "t_na+"        "t_cl-"      "t_hco3-"       "t_ca+2"      "t_so4-2"       "t_mg+2"       "t_ba+2"       "t_al+3"     "t_h4sio4"         "t_k+"                                                                                                                                                                                                                                                                                                                                                                                                                                                                                                                                                                     
Zone T= "2.74424928E+03 yr" I=      9J=     10K=     23F=Point 
     125.0000     125.0000   -5425.0000  5.47602E+02  264.723  0.00000E+00  1.00000E+00  1.00001  5.9469  1.0900E-10  1.0143E-10  2.2226E-02  2.5792E-04  9.6243E-11  2.5507E-05  9.7510E-11  3.5270E-04  3.6542E-04  1.0070E-10                                                                                                                                                                                                                                                                                                                                                                                                                                                                                                                                                                                                
     375.0000     125.0000   -5425.0000  5.47603E+02  264.724  0.00000E+00  1.00000E+00  1.00001  5.9469  1.9258E-10  1.1472E-10  2.2226E-02  2.5792E-04  1.0154E-10  2.5507E-05  9.7509E-11  3.5270E-04  3.6542E-04  1.0695E-10                                                                                                                                                                                                                                                                                                                                                                                                                                                                                                                                                                                                
     625.0000     125.0000   -5425.0000  5.47603E+02  264.724  0.00000E+00  1.00000E+00  1.00001  5.9469  1.2355E-09  2.8057E-10  2.2227E-02  2.5792E-04  1.6760E-10  2.5507E-05  9.7508E-11  3.5270E-04  3.6542E-04  1.8491E-10                                                                                                                                                                                                                                                                                                                                                                                                                                                                                                                                                                                                
     760.0000     125.0000   -5425.0000  5.47602E+02  264.724  0.00000E+00  1.00000E+00  1.00001  5.9469  1.2578E-09  2.8413E-10  2.2227E-02  2.5792E-04  1.6902E-10  2.5507E-05  9.7508E-11  3.5270E-04  3.6542E-04  1.8658E-10                                                                                                                                                                                                                                                                                                                                                                                                                                                                                                                                                                                                
     780.0000     125.0000   -5425.0000  5.47602E+02  264.724  0.00000E+00  1.00000E+00  1.00001  5.9469  1.2045E-09  2.7565E-10  2.2227E-02  2.5792E-04  1.6564E-10  2.5507E-05  9.7508E-11  3.5270E-04  3.6542E-04  1.8259E-10                                                                                                                                                                                                                                                                                                                                                                                                                                                                                                                                                                                                
     800.0000     125.0000   -5425.0000  5.47602E+02  264.724  0.00000E+00  1.00000E+00  1.00001  5.9469  5.3047E-10  1.6846E-10  2.2226E-02  2.5792E-04  1.2294E-10  2.5507E-05  9.7508E-11  3.5270E-04  3.6542E-04  1.3221E-10                                                                                                                                                                                                                                                                                                                                                                                                                                                                                                                                                                                                
     935.0000     125.0000   -5425.0000  5.47601E+02  264.724  0.00000E+00  1.00000E+00  1.00001  5.9469  2.0197E-10  1.1621E-10  2.2226E-02  2.5792E-04  1.0213E-10  2.5507E-05  9.7509E-11  3.5270E-04  3.6542E-04  1.0765E-10                                                                                                                                                                                                                                                                                                                                                                                                                                                                                                                                                                                                
    1185.0000     125.0000   -5425.0000  5.47598E+02  264.724  0.00000E+00  1.00000E+00  1.00001  5.9469  1.1234E-10  1.0196E-10  2.2226E-02  2.5792E-04  9.6455E-11  2.5507E-05  9.7510E-11  3.5270E-04  3.6542E-04  1.0095E-10                                                                                                                                                                                                                                                                                                                                                                                                                                                                                                                                                                                                
    1435.0000     125.0000   -5425.0000  5.47597E+02  264.724  0.00000E+00  1.00000E+00  1.00001  5.9469  1.0098E-10  1.0015E-10  2.2226E-02  2.5792E-04  9.5737E-11  2.5507E-05  9.7512E-11  3.5270E-04  3.6542E-04  1.0010E-10                                                                                                                                                                                                                                                                                                                                                                                                                                                                                                                                                                                                
     125.0000     125.0000   -5225.0000  5.31045E+02  238.219  0.00000E+00  1.00000E+00  1.00001  6.2505  1.7343E-09  3.6017E-10  5.6865E-03  2.7215E-04  2.1293E-10  2.9063E-05  1.0142E-10  3.5258E-04  3.4452E-04  2.2227E-10                                                                                                                                                                                                                                                                                                                                                                                                                                                                                                                                                                                                
     375.0000     125.0000   -5225.0000  5.31046E+02  238.217  0.00000E+00  1.00000E+00  1.00001  6.2505  1.3598E-08  2.2484E-09  5.6861E-03  2.7214E-04  1.0152E-09  2.9062E-05  1.0142E-10  3.5258E-04  3.4453E-04  1.1096E-09                                                                                                                                                                                                                                                                                                                                                                                                                                                                                                                                                                                                
     625.0000     125.0000   -5225.0000  5.31046E+02  238.217  0.00000E+00  1.00000E+00  1.00001  6.2506  1.3411E-07  2.1430E-08  5.6859E-03  2.7204E-04  9.1676E-09  2.9051E-05  1.0142E-10  3.5253E-04  3.4465E-04  1.0123E-08                                                                                                                                                                                                                                                                                                                                                                                                                                                                                                                                                                                                
     760.0000     125.0000   -5225.0000  5.31045E+02  238.217  0.00000E+00  1.00000E+00  1.00001  6.2506  1.3603E-07  2.1736E-08  5.6862E-03  2.7203E-04  9.2977E-09  2.9051E-05  1.0142E-10  3.5253E-04  3.4464E-04  1.0267E-08                                                                                                                                                                                                                                                                                                                                                                                                                                                                                                                                                                                                
     780.0000     125.0000   -5225.0000  5.31045E+02  238.218  0.00000E+00  1.00000E+00  1.00001  6.2506  1.2978E-07  2.0740E-08  5.6862E-03  2.7204E-04  8.8743E-09  2.9052E-05  1.0142E-10  3.5254E-04  3.4463E-04  9.7991E-09                                                                                                                                                                                                                                                                                                                                                                                                                                                                                                                                                                                                
     800.0000     125.0000   -5225.0000  5.31045E+02  238.218  0.00000E+00  1.00000E+00  1.00001  6.2505  5.2663E-08  8.4663E-09  5.6863E-03  2.7211E-04  3.6577E-09  2.9058E-05  1.0142E-10  3.5257E-04  3.4456E-04  4.0314E-09                                                                                                                                                                                                                                                                                                                                                                                                                                                                                                                                                                                                
     935.0000     125.0000   -5225.0000  5.31044E+02  238.219  0.00000E+00  1.00000E+00  1.00001  6.2505  1.4755E-08  2.4326E-09  5.6866E-03  2.7214E-04  1.0935E-09  2.9061E-05  1.0142E-10  3.5258E-04  3.4453E-04  1.1961E-09                                                                                                                                                                                                                                                                                                                                                                                                                                                                                                                                                                                                
    1185.0000     125.0000   -5225.0000  5.31041E+02  238.223  0.00000E+00  1.00000E+00  1.00001  6.2504  2.2867E-09  4.4809E-10  5.6879E-03  2.7215E-04  2.5029E-10  2.9062E-05  1.0142E-10  3.5259E-04  3.4452E-04  2.6359E-10                                                                                                                                                                                                                                                                                                                                                                                                                                                                                                                                                                                                
    1435.0000     125.0000   -5225.0000  5.31039E+02  238.228  0.00000E+00  1.00000E+00  1.00001  6.2503  3.2303E-10  1.3554E-10  5.6892E-03  2.7215E-04  1.1752E-10  2.9062E-05  1.0143E-10  3.5259E-04  3.4452E-04  1.1672E-10                                                                                                                                                                                                                                                                                                                                                                                                                                                                                                                                                                                                
     125.0000     125.0000   -4975.0000  5.09845E+02  227.281  0.00000E+00  1.00000E+00  1.00001  6.3904  1.2995E-07  2.0765E-08  3.1934E-03  2.7531E-04  8.7597E-09  3.0485E-05  1.0055E-10  3.4471E-04  3.4116E-04  9.8111E-09                                                                                                                                                                                                                                                                                                                                                                                                                                                                                                                                                                                                
     375.0000     125.0000   -4975.0000  5.09848E+02  227.274  0.00000E+00  1.00000E+00  1.00001  6.3910  8.4407E-07  1.3441E-07  3.1924E-03  2.7467E-04  5.6376E-08  3.0421E-05  1.0050E-10  3.4441E-04  3.4184E-04  6.3217E-08                                                                                                                                                                                                                                                                                                                                                                                                                                                                                                                                                                                                
     625.0000     125.0000   -4975.0000  5.09850E+02  227.265  0.00000E+00  1.00000E+00  1.00001  6.3956  6.5377E-06  1.0405E-06  3.1932E-03  2.6930E-04  4.3603E-07  2.9873E-05  1.0041E-10  3.4136E-04  3.4823E-04  4.8902E-07                                                                                                                                                                                                                                                                                                                                                                                                                                                                                                                                                                                                
     760.0000     125.0000   -4975.0000  5.09849E+02  227.266  0.00000E+00  1.00000E+00  1.00001  6.3956  6.6093E-06  1.0519E-06  3.1934E-03  2.6932E-04  4.4080E-07  2.9874E-05  1.0041E-10  3.4154E-04  3.4804E-04  4.9438E-07                                                                                                                                                                                                                                                                                                                                                                                                                                                                                                                                                                                                
     780.0000     125.0000   -4975.0000  5.09848E+02  227.266  0.00000E+00  1.00000E+00  1.00001  6.3953  6.3090E-06  1.0041E-06  3.1933E-03  2.6965E-04  4.2077E-07  2.9909E-05  1.0041E-10  3.4185E-04  3.4752E-04  4.7192E-07                                                                                                                                                                                                                                                                                                                                                                                                                                                                                                                                                                                                
     800.0000     125.0000   -4975.0000  5.09848E+02  227.272  0.00000E+00  1.00000E+00  1.00001  6.3925  2.7539E-06  4.3834E-07  3.1929E-03  2.7294E-04  1.8374E-07  3.0244E-05  1.0046E-10  3.4358E-04  3.4372E-04  2.0604E-07                                                                                                                                                                                                                                                                                                                                                                                                                                                                                                                                                                                                
     935.0000     125.0000   -4975.0000  5.09846E+02  227.277  0.00000E+00  1.00000E+00  1.00001  6.3910  9.0277E-07  1.4375E-07  3.1930E-03  2.7461E-04  6.0292E-08  3.0414E-05  1.0050E-10  3.4436E-04  3.4193E-04  6.7607E-08                                                                                                                                                                                                                                                                                                                                                                                                                                                                                                                                                                                                
    1185.0000     125.0000   -4975.0000  5.09841E+02  227.290  0.00000E+00  1.00000E+00  1.00001  6.3903  1.7323E-07  2.7653E-08  3.1950E-03  2.7527E-04  1.1647E-08  3.0480E-05  1.0055E-10  3.4470E-04  3.4120E-04  1.3048E-08                                                                                                                                                                                                                                                                                                                                                                                                                                                                                                                                                                                                
    1435.0000     125.0000   -4975.0000  5.09837E+02  227.303  0.00000E+00  1.00000E+00  1.00001  6.3900  2.5640E-08  4.1645E-09  3.1971E-03  2.7539E-04  1.8042E-09  3.0491E-05  1.0057E-10  3.4475E-04  3.4109E-04  2.0100E-09                                                                                                                                                                                                                                                                                                                                                                                                                                                                                                                                                                                                
     125.0000     125.0000   -4725.0000  4.88374E+02  215.853  0.00000E+00  1.00000E+00  1.00001  6.5491  3.4364E-06  5.4693E-07  1.7602E-03  2.7284E-04  2.2764E-07  3.1545E-05  9.6591E-11  3.3454E-04  3.3888E-04  2.5708E-07                                                                                                                                                                                                                                                                                                                                                                                                                                                                                                                                                                                                
     375.0000     125.0000   -4725.0000  4.88376E+02  215.442  0.00000E+00  1.00000E+00  1.00001  6.5654  1.7253E-05  2.7457E-06  1.7290E-03  2.6042E-04  1.1417E-06  3.0257E-05  9.5388E-11  3.2796E-04  3.5314E-04  1.2904E-06                                                                                                                                                                                                                                                                                                                                                                                                                                                                                                                                                                                                
     625.0000     125.0000   -4725.0000  4.88378E+02  214.736  0.00000E+00  1.00000E+00  1.00001  6.6545  1.0157E-04  1.6162E-05  1.7144E-03  1.8410E-04  6.7174E-06  2.2001E-05  9.3619E-11  2.7439E-04  5.0140E-04  7.5955E-06                                                                                                                                                                                                                                                                                                                                                                                                                                                                                                                                                                                                
     760.0000     125.0000   -4725.0000  4.88377E+02  214.702  0.00000E+00  1.00000E+00  1.00001  6.6544  1.0210E-04  1.6248E-05  1.7111E-03  1.8466E-04  6.7524E-06  2.2066E-05  9.3539E-11  2.7715E-04  4.9569E-04  7.6355E-06                                                                                                                                                                                                                                                                                                                                                                                                                                                                                                                                                                                                
     780.0000     125.0000   -4725.0000  4.88376E+02  214.682  0.00000E+00  1.00000E+00  1.00001  6.6491  9.7235E-05  1.5473E-05  1.7059E-03  1.8919E-04  6.4303E-06  2.2568E-05  9.3660E-11  2.8149E-04  4.8198E-04  7.2716E-06                                                                                                                                                                                                                                                                                                                                                                                                                                                                                                                                                                                                
     800.0000     125.0000   -4725.0000  4.88376E+02  215.224  0.00000E+00  1.00000E+00  1.00001  6.5932  4.5950E-05  7.3122E-06  1.7234E-03  2.3342E-04  3.0403E-06  2.7357E-05  9.4675E-11  3.1013E-04  3.9397E-04  3.4364E-06                                                                                                                                                                                                                                                                                                                                                                                                                                                                                                                                                                                                
     935.0000     125.0000   -4725.0000  4.88375E+02  215.494  0.00000E+00  1.00000E+00  1.00001  6.5657  1.8290E-05  2.9106E-06  1.7341E-03  2.5920E-04  1.2104E-06  3.0119E-05  9.5341E-11  3.2673E-04  3.5535E-04  1.3678E-06                                                                                                                                                                                                                                                                                                                                                                                                                                                                                                                                                                                                
    1185.0000     125.0000   -4725.0000  4.88372E+02  215.978  0.00000E+00  1.00000E+00  1.00001  6.5484  4.6732E-06  7.4375E-07  1.7720E-03  2.7161E-04  3.0960E-07  3.1397E-05  9.6807E-11  3.3383E-04  3.4053E-04  3.4957E-07                                                                                                                                                                                                                                                                                                                                                                                                                                                                                                                                                                                                