Title="TOUGHREACT V3.30-OMP: Aqueous Total & Species Concentrations in mol/kg h2o, Surface & Exchanged Species in mol/kg h2o, Dry blocks in mol/L medium"                                                                                                                                                                                                                                                                                                                                                                                                                                                                                                                                                                                                                                                                       
Variables= "X(m)"   "Y(m)"   "Z(m)"   "P(bar)"     "T(C)"   "SatGas"   "SatLiq"     "aH2O"       "pH"        "t_na+"        "t_cl-"      "t_hco3-"       "t_ca+2"      "t_so4-2"       "t_mg+2"       "t_ba+2"       "t_al+3"     "t_h4sio4"         "t_k+"                                                                                                                                                                                                                                                                                                                                                                                                                                                                                                                                                                     
Zone T= "1.05523673E+03 yr" I=      9J=     10K=     23F=Point 
     125.0000     125.0000   -5425.0000  5.47800E+02  253.739  0.00000E+00  1.00000E+00  1.00001  6.0662  1.0834E-10  1.0135E-10  1.2748E-02  2.6529E-04  9.9606E-11  2.7049E-05  9.9470E-11  3.5319E-04  3.5610E-04  1.0065E-10                                                                                                                                                                                                                                                                                                                                                                                                                                                                                                                                                                                                
     375.0000     125.0000   -5425.0000  5.47800E+02  253.739  0.00000E+00  1.00000E+00  1.00001  6.0662  1.8740E-10  1.1393E-10  1.2748E-02  2.6529E-04  1.0478E-10  2.7049E-05  9.9470E-11  3.5319E-04  3.5610E-04  1.0656E-10                                                                                                                                                                                                                                                                                                                                                                                                                                                                                                                                                                                                
     625.0000     125.0000   -5425.0000  5.47799E+02  253.740  0.00000E+00  1.00000E+00  1.00001  6.0662  1.1871E-09  2.7300E-10  1.2749E-02  2.6529E-04  1.7026E-10  2.7048E-05  9.9470E-11  3.5319E-04  3.5610E-04  1.8132E-10                                                                                                                                                                                                                                                                                                                                                                                                                                                                                                                                                                                                
     760.0000     125.0000   -5425.0000  5.47797E+02  253.740  0.00000E+00  1.00000E+00  1.00001  6.0662  1.2100E-09  2.7664E-10  1.2748E-02  2.6529E-04  1.7176E-10  2.7048E-05  9.9470E-11  3.5319E-04  3.5610E-04  1.8303E-10                                                                                                                                                                                                                                                                                                                                                                                                                                                                                                                                                                                                
     780.0000     125.0000   -5425.0000  5.47797E+02  253.740  0.00000E+00  1.00000E+00  1.00001  6.0662  1.1736E-09  2.7085E-10  1.2748E-02  2.6529E-04  1.6938E-10  2.7048E-05  9.9470E-11  3.5319E-04  3.5610E-04  1.8031E-10                                                                                                                                                                                                                                                                                                                                                                                                                                                                                                                                                                                                
     800.0000     125.0000   -5425.0000  5.47797E+02  253.740  0.00000E+00  1.00000E+00  1.00001  6.0662  4.8846E-10  1.6183E-10  1.2748E-02  2.6529E-04  1.2450E-10  2.7049E-05  9.9470E-11  3.5319E-04  3.5610E-04  1.2908E-10                                                                                                                                                                                                                                                                                                                                                                                                                                                                                                                                                                                                
     935.0000     125.0000   -5425.0000  5.47795E+02  253.739  0.00000E+00  1.00000E+00  1.00001  6.0662  1.9620E-10  1.1533E-10  1.2748E-02  2.6529E-04  1.0536E-10  2.7049E-05  9.9470E-11  3.5319E-04  3.5610E-04  1.0722E-10                                                                                                                                                                                                                                                                                                                                                                                                                                                                                                                                                                                                
    1185.0000     125.0000   -5425.0000  5.47791E+02  253.739  0.00000E+00  1.00000E+00  1.00001  6.0662  1.1140E-10  1.0184E-10  1.2748E-02  2.6529E-04  9.9807E-11  2.7049E-05  9.9471E-11  3.5319E-04  3.5610E-04  1.0088E-10                                                                                                                                                                                                                                                                                                                                                                                                                                                                                                                                                                                                
    1435.0000     125.0000   -5425.0000  5.47787E+02  253.739  0.00000E+00  1.00000E+00  1.00001  6.0662  1.0086E-10  1.0016E-10  1.2748E-02  2.6529E-04  9.9118E-11  2.7049E-05  9.9472E-11  3.5319E-04  3.5610E-04  1.0009E-10                                                                                                                                                                                                                                                                                                                                                                                                                                                                                                                                                                                                
     125.0000     125.0000   -5225.0000  5.31112E+02  238.161  0.00000E+00  1.00000E+00  1.00001  6.2507  1.7202E-09  3.5788E-10  5.6690E-03  2.7275E-04  2.0893E-10  2.9127E-05  1.0058E-10  3.4991E-04  3.4673E-04  2.2120E-10                                                                                                                                                                                                                                                                                                                                                                                                                                                                                                                                                                                                
     375.0000     125.0000   -5225.0000  5.31112E+02  238.161  0.00000E+00  1.00000E+00  1.00001  6.2507  1.3533E-08  2.2379E-09  5.6690E-03  2.7274E-04  9.9615E-10  2.9126E-05  1.0058E-10  3.4991E-04  3.4674E-04  1.1047E-09                                                                                                                                                                                                                                                                                                                                                                                                                                                                                                                                                                                                
     625.0000     125.0000   -5225.0000  5.31112E+02  238.162  0.00000E+00  1.00000E+00  1.00001  6.2508  1.3428E-07  2.1454E-08  5.6693E-03  2.7263E-04  9.0453E-09  2.9116E-05  1.0058E-10  3.4986E-04  3.4685E-04  1.0135E-08                                                                                                                                                                                                                                                                                                                                                                                                                                                                                                                                                                                                
     760.0000     125.0000   -5225.0000  5.31110E+02  238.162  0.00000E+00  1.00000E+00  1.00001  6.2508  1.3637E-07  2.1786E-08  5.6693E-03  2.7263E-04  9.1845E-09  2.9116E-05  1.0058E-10  3.4986E-04  3.4685E-04  1.0291E-08                                                                                                                                                                                                                                                                                                                                                                                                                                                                                                                                                                                                
     780.0000     125.0000   -5225.0000  5.31109E+02  238.162  0.00000E+00  1.00000E+00  1.00001  6.2508  1.3185E-07  2.1067E-08  5.6693E-03  2.7263E-04  8.8833E-09  2.9116E-05  1.0058E-10  3.4987E-04  3.4684E-04  9.9533E-09                                                                                                                                                                                                                                                                                                                                                                                                                                                                                                                                                                                                
     800.0000     125.0000   -5225.0000  5.31109E+02  238.162  0.00000E+00  1.00000E+00  1.00001  6.2507  4.9830E-08  8.0142E-09  5.6693E-03  2.7271E-04  3.4156E-09  2.9123E-05  1.0058E-10  3.4990E-04  3.4677E-04  3.8192E-09                                                                                                                                                                                                                                                                                                                                                                                                                                                                                                                                                                                                
     935.0000     125.0000   -5225.0000  5.31107E+02  238.162  0.00000E+00  1.00000E+00  1.00001  6.2507  1.4681E-08  2.4205E-09  5.6694E-03  2.7274E-04  1.0726E-09  2.9126E-05  1.0058E-10  3.4991E-04  3.4674E-04  1.1905E-09                                                                                                                                                                                                                                                                                                                                                                                                                                                                                                                                                                                                
    1185.0000     125.0000   -5225.0000  5.31101E+02  238.165  0.00000E+00  1.00000E+00  1.00001  6.2506  2.2581E-09  4.4349E-10  5.6701E-03  2.7275E-04  2.4478E-10  2.9127E-05  1.0058E-10  3.4991E-04  3.4673E-04  2.6144E-10                                                                                                                                                                                                                                                                                                                                                                                                                                                                                                                                                                                                
    1435.0000     125.0000   -5225.0000  5.31097E+02  238.167  0.00000E+00  1.00000E+00  1.00001  6.2506  3.1852E-10  1.3481E-10  5.6710E-03  2.7275E-04  1.1554E-10  2.9127E-05  1.0058E-10  3.4991E-04  3.4673E-04  1.1638E-10                                                                                                                                                                                                                                                                                                                                                                                                                                                                                                                                                                                                
     125.0000     125.0000   -4975.0000  5.09913E+02  227.249  0.00000E+00  1.00000E+00  1.00001  6.3906  1.2974E-07  2.0731E-08  3.1879E-03  2.7559E-04  8.6946E-09  3.0518E-05  1.0020E-10  3.4346E-04  3.4218E-04  9.7952E-09                                                                                                                                                                                                                                                                                                                                                                                                                                                                                                                                                                                                
     375.0000     125.0000   -4975.0000  5.09915E+02  227.244  0.00000E+00  1.00000E+00  1.00001  6.3912  8.4229E-07  1.3412E-07  3.1873E-03  2.7495E-04  5.5930E-08  3.0453E-05  1.0016E-10  3.4317E-04  3.4286E-04  6.3083E-08                                                                                                                                                                                                                                                                                                                                                                                                                                                                                                                                                                                                
     625.0000     125.0000   -4975.0000  5.09917E+02  227.237  0.00000E+00  1.00000E+00  1.00001  6.3958  6.5829E-06  1.0477E-06  3.1885E-03  2.6954E-04  4.3659E-07  2.9900E-05  1.0007E-10  3.4017E-04  3.4926E-04  4.9239E-07                                                                                                                                                                                                                                                                                                                                                                                                                                                                                                                                                                                                
     760.0000     125.0000   -4975.0000  5.09913E+02  227.238  0.00000E+00  1.00000E+00  1.00001  6.3957  6.6643E-06  1.0606E-06  3.1886E-03  2.6954E-04  4.4198E-07  2.9901E-05  1.0007E-10  3.4035E-04  3.4909E-04  4.9847E-07                                                                                                                                                                                                                                                                                                                                                                                                                                                                                                                                                                                                
     780.0000     125.0000   -4975.0000  5.09913E+02  227.238  0.00000E+00  1.00000E+00  1.00001  6.3955  6.4402E-06  1.0250E-06  3.1884E-03  2.6981E-04  4.2712E-07  2.9928E-05  1.0008E-10  3.4062E-04  3.4864E-04  4.8172E-07                                                                                                                                                                                                                                                                                                                                                                                                                                                                                                                                                                                                
     800.0000     125.0000   -4975.0000  5.09912E+02  227.243  0.00000E+00  1.00000E+00  1.00001  6.3925  2.6016E-06  4.1409E-07  3.1879E-03  2.7336E-04  1.7259E-07  3.0291E-05  1.0012E-10  3.4244E-04  3.4457E-04  1.9465E-07                                                                                                                                                                                                                                                                                                                                                                                                                                                                                                                                                                                                
     935.0000     125.0000   -4975.0000  5.09908E+02  227.246  0.00000E+00  1.00000E+00  1.00001  6.3912  9.0345E-07  1.4385E-07  3.1878E-03  2.7489E-04  5.9986E-08  3.0446E-05  1.0015E-10  3.4312E-04  3.4295E-04  6.7656E-08                                                                                                                                                                                                                                                                                                                                                                                                                                                                                                                                                                                                
    1185.0000     125.0000   -4975.0000  5.09898E+02  227.257  0.00000E+00  1.00000E+00  1.00001  6.3905  1.7228E-07  2.7499E-08  3.1892E-03  2.7555E-04  1.1515E-08  3.0513E-05  1.0020E-10  3.4345E-04  3.4222E-04  1.2976E-08                                                                                                                                                                                                                                                                                                                                                                                                                                                                                                                                                                                                
    1435.0000     125.0000   -4975.0000  5.09891E+02  227.267  0.00000E+00  1.00000E+00  1.00001  6.3902  2.5455E-08  4.1348E-09  3.1910E-03  2.7567E-04  1.7813E-09  3.0524E-05  1.0022E-10  3.4350E-04  3.4212E-04  1.9961E-09                                                                                                                                                                                                                                                                                                                                                                                                                                                                                                                                                                                                
     125.0000     125.0000   -4725.0000  4.88444E+02  215.814  0.00000E+00  1.00000E+00  1.00001  6.5496  3.4619E-06  5.5097E-07  1.7567E-03  2.7292E-04  2.2892E-07  3.1557E-05  9.6414E-11  3.3408E-04  3.3924E-04  2.5898E-07                                                                                                                                                                                                                                                                                                                                                                                                                                                                                                                                                                                                
     375.0000     125.0000   -4725.0000  4.88446E+02  215.407  0.00000E+00  1.00000E+00  1.00001  6.5659  1.7359E-05  2.7625E-06  1.7259E-03  2.6042E-04  1.1470E-06  3.0261E-05  9.5225E-11  3.2754E-04  3.5354E-04  1.2983E-06                                                                                                                                                                                                                                                                                                                                                                                                                                                                                                                                                                                                
     625.0000     125.0000   -4725.0000  4.88446E+02  214.708  0.00000E+00  1.00000E+00  1.00001  6.6556  1.0235E-04  1.6287E-05  1.7125E-03  1.8357E-04  6.7635E-06  2.1945E-05  9.3496E-11  2.7394E-04  5.0291E-04  7.6539E-06                                                                                                                                                                                                                                                                                                                                                                                                                                                                                                                                                                                                
     760.0000     125.0000   -4725.0000  4.88443E+02  214.675  0.00000E+00  1.00000E+00  1.00001  6.6555  1.0298E-04  1.6387E-05  1.7093E-03  1.8406E-04  6.8049E-06  2.2002E-05  9.3420E-11  2.7665E-04  4.9736E-04  7.7012E-06                                                                                                                                                                                                                                                                                                                                                                                                                                                                                                                                                                                                
     780.0000     125.0000   -4725.0000  4.88442E+02  214.656  0.00000E+00  1.00000E+00  1.00001  6.6512  9.9189E-05  1.5784E-05  1.7048E-03  1.8776E-04  6.5540E-06  2.2413E-05  9.3527E-11  2.8061E-04  4.8534E-04  7.4177E-06                                                                                                                                                                                                                                                                                                                                                                                                                                                                                                                                                                                                
     800.0000     125.0000   -4725.0000  4.88441E+02  215.193  0.00000E+00  1.00000E+00  1.00001  6.5919  4.4196E-05  7.0330E-06  1.7198E-03  2.3518E-04  2.9205E-06  2.7551E-05  9.4556E-11  3.1105E-04  3.9128E-04  3.3052E-06                                                                                                                                                                                                                                                                                                                                                                                                                                                                                                                                                                                                
     935.0000     125.0000   -4725.0000  4.88436E+02  215.458  0.00000E+00  1.00000E+00  1.00001  6.5662  1.8409E-05  2.9294E-06  1.7309E-03  2.5918E-04  1.2164E-06  3.0121E-05  9.5173E-11  3.2629E-04  3.5578E-04  1.3767E-06                                                                                                                                                                                                                                                                                                                                                                                                                                                                                                                                                                                                
    1185.0000     125.0000   -4725.0000  4.88424E+02  215.937  0.00000E+00  1.00000E+00  1.00001  6.5489  4.6947E-06  7.4715E-07  1.7683E-03  2.7169E-04  3.1047E-07  3.1410E-05  9.6625E-11  3.3337E-04  3.4089E-04  3.5117E-07                                                                                                                                                                                                                                                                                                                                                                                                                                                                                                                                                                                                