Title="TOUGHREACT V3.30-OMP: Aqueous Total & Species Concentrations in mol/kg h2o, Surface & Exchanged Species in mol/kg h2o, Dry blocks in mol/L medium"                                                                                                                                                                                                                                                                                                                                                                                                                                                                                                                                                                                                                                                                       
Variables= "X(m)"   "Y(m)"   "Z(m)"   "P(bar)"     "T(C)"   "SatGas"   "SatLiq"     "aH2O"       "pH"        "t_na+"        "t_cl-"      "t_hco3-"       "t_ca+2"      "t_so4-2"       "t_mg+2"       "t_ba+2"       "t_al+3"     "t_h4sio4"         "t_k+"                                                                                                                                                                                                                                                                                                                                                                                                                                                                                                                                                                     
Zone T= "1.26755163E+03 yr" I=      9J=     10K=     23F=Point 
     125.0000     125.0000   -5425.0000  5.47796E+02  255.119  0.00000E+00  1.00000E+00  1.00001  6.0507  1.0842E-10  1.0136E-10  1.3681E-02  2.6444E-04  9.9301E-11  2.6858E-05  9.9293E-11  3.5327E-04  3.5709E-04  1.0066E-10                                                                                                                                                                                                                                                                                                                                                                                                                                                                                                                                                                                                
     375.0000     125.0000   -5425.0000  5.47796E+02  255.119  0.00000E+00  1.00000E+00  1.00001  6.0507  1.8805E-10  1.1403E-10  1.3681E-02  2.6444E-04  1.0450E-10  2.6858E-05  9.9292E-11  3.5327E-04  3.5709E-04  1.0661E-10                                                                                                                                                                                                                                                                                                                                                                                                                                                                                                                                                                                                
     625.0000     125.0000   -5425.0000  5.47796E+02  255.120  0.00000E+00  1.00000E+00  1.00001  6.0507  1.1931E-09  2.7394E-10  1.3681E-02  2.6444E-04  1.7013E-10  2.6857E-05  9.9292E-11  3.5327E-04  3.5709E-04  1.8177E-10                                                                                                                                                                                                                                                                                                                                                                                                                                                                                                                                                                                                
     760.0000     125.0000   -5425.0000  5.47794E+02  255.119  0.00000E+00  1.00000E+00  1.00001  6.0507  1.2160E-09  2.7758E-10  1.3681E-02  2.6444E-04  1.7163E-10  2.6857E-05  9.9292E-11  3.5327E-04  3.5709E-04  1.8348E-10                                                                                                                                                                                                                                                                                                                                                                                                                                                                                                                                                                                                
     780.0000     125.0000   -5425.0000  5.47794E+02  255.119  0.00000E+00  1.00000E+00  1.00001  6.0507  1.1775E-09  2.7145E-10  1.3681E-02  2.6444E-04  1.6911E-10  2.6857E-05  9.9292E-11  3.5327E-04  3.5709E-04  1.8060E-10                                                                                                                                                                                                                                                                                                                                                                                                                                                                                                                                                                                                
     800.0000     125.0000   -5425.0000  5.47794E+02  255.119  0.00000E+00  1.00000E+00  1.00001  6.0507  4.9406E-10  1.6272E-10  1.3681E-02  2.6444E-04  1.2448E-10  2.6857E-05  9.9292E-11  3.5327E-04  3.5709E-04  1.2949E-10                                                                                                                                                                                                                                                                                                                                                                                                                                                                                                                                                                                                
     935.0000     125.0000   -5425.0000  5.47792E+02  255.119  0.00000E+00  1.00000E+00  1.00001  6.0507  1.9693E-10  1.1544E-10  1.3681E-02  2.6444E-04  1.0508E-10  2.6857E-05  9.9292E-11  3.5327E-04  3.5709E-04  1.0728E-10                                                                                                                                                                                                                                                                                                                                                                                                                                                                                                                                                                                                
    1185.0000     125.0000   -5425.0000  5.47789E+02  255.119  0.00000E+00  1.00000E+00  1.00001  6.0507  1.1152E-10  1.0185E-10  1.3681E-02  2.6444E-04  9.9504E-11  2.6858E-05  9.9293E-11  3.5327E-04  3.5709E-04  1.0089E-10                                                                                                                                                                                                                                                                                                                                                                                                                                                                                                                                                                                                
    1435.0000     125.0000   -5425.0000  5.47786E+02  255.119  0.00000E+00  1.00000E+00  1.00001  6.0507  1.0088E-10  1.0016E-10  1.3681E-02  2.6444E-04  9.8811E-11  2.6857E-05  9.9294E-11  3.5327E-04  3.5709E-04  1.0010E-10                                                                                                                                                                                                                                                                                                                                                                                                                                                                                                                                                                                                
     125.0000     125.0000   -5225.0000  5.31124E+02  238.167  0.00000E+00  1.00000E+00  1.00001  6.2507  1.7219E-09  3.5815E-10  5.6707E-03  2.7267E-04  2.0942E-10  2.9119E-05  1.0069E-10  3.5025E-04  3.4644E-04  2.2133E-10                                                                                                                                                                                                                                                                                                                                                                                                                                                                                                                                                                                                
     375.0000     125.0000   -5225.0000  5.31124E+02  238.166  0.00000E+00  1.00000E+00  1.00001  6.2507  1.3540E-08  2.2389E-09  5.6706E-03  2.7266E-04  9.9843E-10  2.9118E-05  1.0069E-10  3.5024E-04  3.4645E-04  1.1052E-09                                                                                                                                                                                                                                                                                                                                                                                                                                                                                                                                                                                                
     625.0000     125.0000   -5225.0000  5.31124E+02  238.167  0.00000E+00  1.00000E+00  1.00001  6.2508  1.3426E-07  2.1451E-08  5.6709E-03  2.7255E-04  9.0608E-09  2.9108E-05  1.0069E-10  3.5020E-04  3.4657E-04  1.0134E-08                                                                                                                                                                                                                                                                                                                                                                                                                                                                                                                                                                                                
     760.0000     125.0000   -5225.0000  5.31123E+02  238.167  0.00000E+00  1.00000E+00  1.00001  6.2508  1.3633E-07  2.1781E-08  5.6710E-03  2.7255E-04  9.1989E-09  2.9108E-05  1.0069E-10  3.5020E-04  3.4657E-04  1.0288E-08                                                                                                                                                                                                                                                                                                                                                                                                                                                                                                                                                                                                
     780.0000     125.0000   -5225.0000  5.31122E+02  238.167  0.00000E+00  1.00000E+00  1.00001  6.2508  1.3158E-07  2.1025E-08  5.6710E-03  2.7256E-04  8.8819E-09  2.9108E-05  1.0069E-10  3.5020E-04  3.4656E-04  9.9334E-09                                                                                                                                                                                                                                                                                                                                                                                                                                                                                                                                                                                                
     800.0000     125.0000   -5225.0000  5.31122E+02  238.167  0.00000E+00  1.00000E+00  1.00001  6.2507  5.0247E-08  8.0808E-09  5.6710E-03  2.7263E-04  3.4498E-09  2.9115E-05  1.0069E-10  3.5023E-04  3.4649E-04  3.8504E-09                                                                                                                                                                                                                                                                                                                                                                                                                                                                                                                                                                                                
     935.0000     125.0000   -5225.0000  5.31120E+02  238.168  0.00000E+00  1.00000E+00  1.00001  6.2507  1.4692E-08  2.4224E-09  5.6711E-03  2.7266E-04  1.0754E-09  2.9118E-05  1.0069E-10  3.5024E-04  3.4646E-04  1.1914E-09                                                                                                                                                                                                                                                                                                                                                                                                                                                                                                                                                                                                
    1185.0000     125.0000   -5225.0000  5.31116E+02  238.170  0.00000E+00  1.00000E+00  1.00001  6.2506  2.2626E-09  4.4421E-10  5.6719E-03  2.7267E-04  2.4553E-10  2.9119E-05  1.0069E-10  3.5025E-04  3.4645E-04  2.6177E-10                                                                                                                                                                                                                                                                                                                                                                                                                                                                                                                                                                                                
    1435.0000     125.0000   -5225.0000  5.31113E+02  238.173  0.00000E+00  1.00000E+00  1.00001  6.2506  3.1919E-10  1.3492E-10  5.6728E-03  2.7267E-04  1.1580E-10  2.9119E-05  1.0069E-10  3.5025E-04  3.4645E-04  1.1643E-10                                                                                                                                                                                                                                                                                                                                                                                                                                                                                                                                                                                                
     125.0000     125.0000   -4975.0000  5.09924E+02  227.253  0.00000E+00  1.00000E+00  1.00001  6.3905  1.2977E-07  2.0735E-08  3.1886E-03  2.7556E-04  8.7028E-09  3.0514E-05  1.0024E-10  3.4362E-04  3.4205E-04  9.7972E-09                                                                                                                                                                                                                                                                                                                                                                                                                                                                                                                                                                                                
     375.0000     125.0000   -4975.0000  5.09926E+02  227.247  0.00000E+00  1.00000E+00  1.00001  6.3911  8.4239E-07  1.3414E-07  3.1879E-03  2.7492E-04  5.5978E-08  3.0449E-05  1.0020E-10  3.4333E-04  3.4273E-04  6.3090E-08                                                                                                                                                                                                                                                                                                                                                                                                                                                                                                                                                                                                
     625.0000     125.0000   -4975.0000  5.09929E+02  227.241  0.00000E+00  1.00000E+00  1.00001  6.3957  6.5774E-06  1.0468E-06  3.1891E-03  2.6951E-04  4.3653E-07  2.9896E-05  1.0012E-10  3.4032E-04  3.4914E-04  4.9198E-07                                                                                                                                                                                                                                                                                                                                                                                                                                                                                                                                                                                                
     760.0000     125.0000   -4975.0000  5.09926E+02  227.241  0.00000E+00  1.00000E+00  1.00001  6.3957  6.6575E-06  1.0595E-06  3.1892E-03  2.6951E-04  4.4184E-07  2.9897E-05  1.0012E-10  3.4050E-04  3.4895E-04  4.9797E-07                                                                                                                                                                                                                                                                                                                                                                                                                                                                                                                                                                                                
     780.0000     125.0000   -4975.0000  5.09926E+02  227.241  0.00000E+00  1.00000E+00  1.00001  6.3955  6.4234E-06  1.0223E-06  3.1891E-03  2.6979E-04  4.2630E-07  2.9926E-05  1.0012E-10  3.4077E-04  3.4850E-04  4.8046E-07                                                                                                                                                                                                                                                                                                                                                                                                                                                                                                                                                                                                
     800.0000     125.0000   -4975.0000  5.09925E+02  227.247  0.00000E+00  1.00000E+00  1.00001  6.3925  2.6252E-06  4.1785E-07  3.1885E-03  2.7331E-04  1.7428E-07  3.0285E-05  1.0016E-10  3.4258E-04  3.4447E-04  1.9642E-07                                                                                                                                                                                                                                                                                                                                                                                                                                                                                                                                                                                                
     935.0000     125.0000   -4975.0000  5.09922E+02  227.250  0.00000E+00  1.00000E+00  1.00001  6.3911  9.0354E-07  1.4387E-07  3.1884E-03  2.7485E-04  6.0036E-08  3.0442E-05  1.0019E-10  3.4328E-04  3.4282E-04  6.7663E-08                                                                                                                                                                                                                                                                                                                                                                                                                                                                                                                                                                                                
    1185.0000     125.0000   -4975.0000  5.09914E+02  227.261  0.00000E+00  1.00000E+00  1.00001  6.3905  1.7249E-07  2.7533E-08  3.1900E-03  2.7552E-04  1.1538E-08  3.0509E-05  1.0025E-10  3.4361E-04  3.4210E-04  1.2992E-08                                                                                                                                                                                                                                                                                                                                                                                                                                                                                                                                                                                                
    1435.0000     125.0000   -4975.0000  5.09908E+02  227.272  0.00000E+00  1.00000E+00  1.00001  6.3902  2.5493E-08  4.1410E-09  3.1918E-03  2.7564E-04  1.7852E-09  3.0520E-05  1.0026E-10  3.4366E-04  3.4199E-04  1.9990E-09                                                                                                                                                                                                                                                                                                                                                                                                                                                                                                                                                                                                
     125.0000     125.0000   -4725.0000  4.88454E+02  215.819  0.00000E+00  1.00000E+00  1.00001  6.5495  3.4589E-06  5.5050E-07  1.7571E-03  2.7291E-04  2.2878E-07  3.1556E-05  9.6435E-11  3.3413E-04  3.3920E-04  2.5876E-07                                                                                                                                                                                                                                                                                                                                                                                                                                                                                                                                                                                                
     375.0000     125.0000   -4725.0000  4.88456E+02  215.411  0.00000E+00  1.00000E+00  1.00001  6.5658  1.7345E-05  2.7602E-06  1.7263E-03  2.6042E-04  1.1462E-06  3.0260E-05  9.5245E-11  3.2759E-04  3.5349E-04  1.2972E-06                                                                                                                                                                                                                                                                                                                                                                                                                                                                                                                                                                                                
     625.0000     125.0000   -4725.0000  4.88457E+02  214.711  0.00000E+00  1.00000E+00  1.00001  6.6554  1.0225E-04  1.6272E-05  1.7127E-03  1.8364E-04  6.7580E-06  2.1952E-05  9.3510E-11  2.7399E-04  5.0273E-04  7.6469E-06                                                                                                                                                                                                                                                                                                                                                                                                                                                                                                                                                                                                
     760.0000     125.0000   -4725.0000  4.88454E+02  214.678  0.00000E+00  1.00000E+00  1.00001  6.6554  1.0287E-04  1.6370E-05  1.7095E-03  1.8413E-04  6.7983E-06  2.2010E-05  9.3433E-11  2.7671E-04  4.9716E-04  7.6929E-06                                                                                                                                                                                                                                                                                                                                                                                                                                                                                                                                                                                                
     780.0000     125.0000   -4725.0000  4.88454E+02  214.659  0.00000E+00  1.00000E+00  1.00001  6.6509  9.8940E-05  1.5744E-05  1.7049E-03  1.8794E-04  6.5383E-06  2.2433E-05  9.3542E-11  2.8072E-04  4.8492E-04  7.3991E-06                                                                                                                                                                                                                                                                                                                                                                                                                                                                                                                                                                                                
     800.0000     125.0000   -4725.0000  4.88453E+02  215.197  0.00000E+00  1.00000E+00  1.00001  6.5922  4.4534E-05  7.0868E-06  1.7203E-03  2.3485E-04  2.9433E-06  2.7514E-05  9.4569E-11  3.1086E-04  3.9181E-04  3.3305E-06                                                                                                                                                                                                                                                                                                                                                                                                                                                                                                                                                                                                
     935.0000     125.0000   -4725.0000  4.88450E+02  215.462  0.00000E+00  1.00000E+00  1.00001  6.5662  1.8399E-05  2.9280E-06  1.7313E-03  2.5918E-04  1.2160E-06  3.0120E-05  9.5195E-11  3.2634E-04  3.5574E-04  1.3760E-06                                                                                                                                                                                                                                                                                                                                                                                                                                                                                                                                                                                                
    1185.0000     125.0000   -4725.0000  4.88442E+02  215.943  0.00000E+00  1.00000E+00  1.00001  6.5488  4.6957E-06  7.4732E-07  1.7688E-03  2.7167E-04  3.1061E-07  3.1408E-05  9.6649E-11  3.3342E-04  3.4085E-04  3.5125E-07                                                                                                                                                                                                                                                                                                                                                                                                                                                                                                                                                                                                