Title="TOUGHREACT V3.30-OMP: Aqueous Total & Species Concentrations in mol/kg h2o, Surface & Exchanged Species in mol/kg h2o, Dry blocks in mol/L medium"                                                                                                                                                                                                                                                                                                                                                                                                                                                                                                                                                                                                                                                                       
Variables= "X(m)"   "Y(m)"   "Z(m)"   "P(bar)"     "T(C)"   "SatGas"   "SatLiq"     "aH2O"       "pH"        "t_na+"        "t_cl-"      "t_hco3-"       "t_ca+2"      "t_so4-2"       "t_mg+2"       "t_ba+2"       "t_al+3"     "t_h4sio4"         "t_k+"                                                                                                                                                                                                                                                                                                                                                                                                                                                                                                                                                                     
Zone T= "1.58443954E+03 yr" I=      9J=     10K=     23F=Point 
     125.0000     125.0000   -5425.0000  5.47762E+02  257.178  0.00000E+00  1.00000E+00  1.00001  6.0279  1.0854E-10  1.0137E-10  1.5196E-02  2.6313E-04  9.8791E-11  2.6571E-05  9.8995E-11  3.5332E-04  3.5864E-04  1.0067E-10                                                                                                                                                                                                                                                                                                                                                                                                                                                                                                                                                                                                
     375.0000     125.0000   -5425.0000  5.47762E+02  257.179  0.00000E+00  1.00000E+00  1.00001  6.0279  1.8901E-10  1.1418E-10  1.5196E-02  2.6313E-04  1.0402E-10  2.6571E-05  9.8995E-11  3.5332E-04  3.5865E-04  1.0668E-10                                                                                                                                                                                                                                                                                                                                                                                                                                                                                                                                                                                                
     625.0000     125.0000   -5425.0000  5.47762E+02  257.179  0.00000E+00  1.00000E+00  1.00001  6.0279  1.2021E-09  2.7536E-10  1.5196E-02  2.6313E-04  1.6984E-10  2.6571E-05  9.8994E-11  3.5332E-04  3.5865E-04  1.8244E-10                                                                                                                                                                                                                                                                                                                                                                                                                                                                                                                                                                                                
     760.0000     125.0000   -5425.0000  5.47761E+02  257.179  0.00000E+00  1.00000E+00  1.00001  6.0279  1.2249E-09  2.7899E-10  1.5196E-02  2.6313E-04  1.7132E-10  2.6571E-05  9.8995E-11  3.5332E-04  3.5865E-04  1.8414E-10                                                                                                                                                                                                                                                                                                                                                                                                                                                                                                                                                                                                
     780.0000     125.0000   -5425.0000  5.47761E+02  257.179  0.00000E+00  1.00000E+00  1.00001  6.0279  1.1832E-09  2.7235E-10  1.5196E-02  2.6313E-04  1.6861E-10  2.6571E-05  9.8995E-11  3.5332E-04  3.5865E-04  1.8102E-10                                                                                                                                                                                                                                                                                                                                                                                                                                                                                                                                                                                                
     800.0000     125.0000   -5425.0000  5.47761E+02  257.179  0.00000E+00  1.00000E+00  1.00001  6.0279  5.0204E-10  1.6398E-10  1.5196E-02  2.6313E-04  1.2436E-10  2.6571E-05  9.8995E-11  3.5332E-04  3.5865E-04  1.3009E-10                                                                                                                                                                                                                                                                                                                                                                                                                                                                                                                                                                                                
     935.0000     125.0000   -5425.0000  5.47760E+02  257.179  0.00000E+00  1.00000E+00  1.00001  6.0279  1.9801E-10  1.1561E-10  1.5196E-02  2.6313E-04  1.0460E-10  2.6571E-05  9.8995E-11  3.5332E-04  3.5865E-04  1.0736E-10                                                                                                                                                                                                                                                                                                                                                                                                                                                                                                                                                                                                
    1185.0000     125.0000   -5425.0000  5.47757E+02  257.179  0.00000E+00  1.00000E+00  1.00001  6.0279  1.1169E-10  1.0188E-10  1.5196E-02  2.6313E-04  9.8997E-11  2.6571E-05  9.8996E-11  3.5332E-04  3.5865E-04  1.0090E-10                                                                                                                                                                                                                                                                                                                                                                                                                                                                                                                                                                                                
    1435.0000     125.0000   -5425.0000  5.47755E+02  257.179  0.00000E+00  1.00000E+00  1.00001  6.0279  1.0090E-10  1.0016E-10  1.5196E-02  2.6313E-04  9.8297E-11  2.6571E-05  9.8997E-11  3.5332E-04  3.5864E-04  1.0010E-10                                                                                                                                                                                                                                                                                                                                                                                                                                                                                                                                                                                                
     125.0000     125.0000   -5225.0000  5.31114E+02  238.176  0.00000E+00  1.00000E+00  1.00001  6.2507  1.7245E-09  3.5858E-10  5.6735E-03  2.7256E-04  2.1017E-10  2.9107E-05  1.0085E-10  3.5075E-04  3.4603E-04  2.2153E-10                                                                                                                                                                                                                                                                                                                                                                                                                                                                                                                                                                                                
     375.0000     125.0000   -5225.0000  5.31115E+02  238.175  0.00000E+00  1.00000E+00  1.00001  6.2507  1.3551E-08  2.2407E-09  5.6733E-03  2.7255E-04  1.0019E-09  2.9106E-05  1.0085E-10  3.5075E-04  3.4604E-04  1.1060E-09                                                                                                                                                                                                                                                                                                                                                                                                                                                                                                                                                                                                
     625.0000     125.0000   -5225.0000  5.31115E+02  238.176  0.00000E+00  1.00000E+00  1.00001  6.2508  1.3423E-07  2.1447E-08  5.6735E-03  2.7244E-04  9.0839E-09  2.9096E-05  1.0085E-10  3.5070E-04  3.4615E-04  1.0132E-08                                                                                                                                                                                                                                                                                                                                                                                                                                                                                                                                                                                                
     760.0000     125.0000   -5225.0000  5.31114E+02  238.176  0.00000E+00  1.00000E+00  1.00001  6.2507  1.3627E-07  2.1772E-08  5.6737E-03  2.7244E-04  9.2204E-09  2.9095E-05  1.0085E-10  3.5070E-04  3.4615E-04  1.0284E-08                                                                                                                                                                                                                                                                                                                                                                                                                                                                                                                                                                                                
     780.0000     125.0000   -5225.0000  5.31114E+02  238.176  0.00000E+00  1.00000E+00  1.00001  6.2507  1.3119E-07  2.0963E-08  5.6737E-03  2.7245E-04  8.8799E-09  2.9096E-05  1.0085E-10  3.5071E-04  3.4614E-04  9.9040E-09                                                                                                                                                                                                                                                                                                                                                                                                                                                                                                                                                                                                
     800.0000     125.0000   -5225.0000  5.31113E+02  238.176  0.00000E+00  1.00000E+00  1.00001  6.2507  5.0809E-08  8.1705E-09  5.6737E-03  2.7252E-04  3.4970E-09  2.9103E-05  1.0085E-10  3.5074E-04  3.4607E-04  3.8926E-09                                                                                                                                                                                                                                                                                                                                                                                                                                                                                                                                                                                                
     935.0000     125.0000   -5225.0000  5.31112E+02  238.177  0.00000E+00  1.00000E+00  1.00001  6.2506  1.4707E-08  2.4248E-09  5.6738E-03  2.7255E-04  1.0794E-09  2.9106E-05  1.0085E-10  3.5075E-04  3.4604E-04  1.1925E-09                                                                                                                                                                                                                                                                                                                                                                                                                                                                                                                                                                                                
    1185.0000     125.0000   -5225.0000  5.31109E+02  238.180  0.00000E+00  1.00000E+00  1.00001  6.2506  2.2683E-09  4.4513E-10  5.6747E-03  2.7256E-04  2.4658E-10  2.9107E-05  1.0085E-10  3.5075E-04  3.4603E-04  2.6221E-10                                                                                                                                                                                                                                                                                                                                                                                                                                                                                                                                                                                                
    1435.0000     125.0000   -5225.0000  5.31106E+02  238.183  0.00000E+00  1.00000E+00  1.00001  6.2506  3.2008E-10  1.3507E-10  5.6757E-03  2.7256E-04  1.1617E-10  2.9106E-05  1.0085E-10  3.5076E-04  3.4603E-04  1.1650E-10                                                                                                                                                                                                                                                                                                                                                                                                                                                                                                                                                                                                
     125.0000     125.0000   -4975.0000  5.09914E+02  227.259  0.00000E+00  1.00000E+00  1.00001  6.3905  1.2981E-07  2.0741E-08  3.1896E-03  2.7550E-04  8.7150E-09  3.0508E-05  1.0031E-10  3.4385E-04  3.4186E-04  9.8002E-09                                                                                                                                                                                                                                                                                                                                                                                                                                                                                                                                                                                                
     375.0000     125.0000   -4975.0000  5.09916E+02  227.253  0.00000E+00  1.00000E+00  1.00001  6.3911  8.4268E-07  1.3419E-07  3.1889E-03  2.7486E-04  5.6059E-08  3.0443E-05  1.0026E-10  3.4356E-04  3.4254E-04  6.3112E-08                                                                                                                                                                                                                                                                                                                                                                                                                                                                                                                                                                                                
     625.0000     125.0000   -4975.0000  5.09919E+02  227.246  0.00000E+00  1.00000E+00  1.00001  6.3957  6.5690E-06  1.0455E-06  3.1900E-03  2.6946E-04  4.3644E-07  2.9891E-05  1.0018E-10  3.4054E-04  3.4894E-04  4.9136E-07                                                                                                                                                                                                                                                                                                                                                                                                                                                                                                                                                                                                
     760.0000     125.0000   -4975.0000  5.09917E+02  227.247  0.00000E+00  1.00000E+00  1.00001  6.3957  6.6473E-06  1.0579E-06  3.1901E-03  2.6947E-04  4.4163E-07  2.9892E-05  1.0018E-10  3.4072E-04  3.4876E-04  4.9721E-07                                                                                                                                                                                                                                                                                                                                                                                                                                                                                                                                                                                                
     780.0000     125.0000   -4975.0000  5.09917E+02  227.247  0.00000E+00  1.00000E+00  1.00001  6.3955  6.3983E-06  1.0183E-06  3.1900E-03  2.6976E-04  4.2509E-07  2.9922E-05  1.0018E-10  3.4100E-04  3.4829E-04  4.7859E-07                                                                                                                                                                                                                                                                                                                                                                                                                                                                                                                                                                                                
     800.0000     125.0000   -4975.0000  5.09916E+02  227.252  0.00000E+00  1.00000E+00  1.00001  6.3925  2.6560E-06  4.2276E-07  3.1895E-03  2.7322E-04  1.7652E-07  3.0276E-05  1.0023E-10  3.4280E-04  3.4431E-04  1.9872E-07                                                                                                                                                                                                                                                                                                                                                                                                                                                                                                                                                                                                
     935.0000     125.0000   -4975.0000  5.09913E+02  227.256  0.00000E+00  1.00000E+00  1.00001  6.3911  9.0348E-07  1.4386E-07  3.1894E-03  2.7480E-04  6.0098E-08  3.0436E-05  1.0026E-10  3.4351E-04  3.4263E-04  6.7659E-08                                                                                                                                                                                                                                                                                                                                                                                                                                                                                                                                                                                                
    1185.0000     125.0000   -4975.0000  5.09907E+02  227.267  0.00000E+00  1.00000E+00  1.00001  6.3904  1.7271E-07  2.7569E-08  3.1911E-03  2.7546E-04  1.1565E-08  3.0503E-05  1.0031E-10  3.4384E-04  3.4191E-04  1.3009E-08                                                                                                                                                                                                                                                                                                                                                                                                                                                                                                                                                                                                
    1435.0000     125.0000   -4975.0000  5.09903E+02  227.279  0.00000E+00  1.00000E+00  1.00001  6.3902  2.5535E-08  4.1476E-09  3.1930E-03  2.7558E-04  1.7900E-09  3.0514E-05  1.0033E-10  3.4389E-04  3.4180E-04  2.0021E-09                                                                                                                                                                                                                                                                                                                                                                                                                                                                                                                                                                                                
     125.0000     125.0000   -4725.0000  4.88444E+02  215.826  0.00000E+00  1.00000E+00  1.00001  6.5494  3.4542E-06  5.4975E-07  1.7577E-03  2.7289E-04  2.2854E-07  3.1553E-05  9.6468E-11  3.3422E-04  3.3913E-04  2.5840E-07                                                                                                                                                                                                                                                                                                                                                                                                                                                                                                                                                                                                
     375.0000     125.0000   -4725.0000  4.88445E+02  215.418  0.00000E+00  1.00000E+00  1.00001  6.5657  1.7325E-05  2.7570E-06  1.7268E-03  2.6042E-04  1.1452E-06  3.0260E-05  9.5275E-11  3.2767E-04  3.5341E-04  1.2957E-06                                                                                                                                                                                                                                                                                                                                                                                                                                                                                                                                                                                                
     625.0000     125.0000   -4725.0000  4.88446E+02  214.716  0.00000E+00  1.00000E+00  1.00001  6.6552  1.0211E-04  1.6249E-05  1.7130E-03  1.8373E-04  6.7495E-06  2.1962E-05  9.3533E-11  2.7408E-04  5.0245E-04  7.6361E-06                                                                                                                                                                                                                                                                                                                                                                                                                                                                                                                                                                                                
     760.0000     125.0000   -4725.0000  4.88445E+02  214.683  0.00000E+00  1.00000E+00  1.00001  6.6552  1.0271E-04  1.6344E-05  1.7099E-03  1.8424E-04  6.7885E-06  2.2022E-05  9.3455E-11  2.7680E-04  4.9685E-04  7.6807E-06                                                                                                                                                                                                                                                                                                                                                                                                                                                                                                                                                                                                
     780.0000     125.0000   -4725.0000  4.88445E+02  214.664  0.00000E+00  1.00000E+00  1.00001  6.6505  9.8568E-05  1.5685E-05  1.7051E-03  1.8821E-04  6.5147E-06  2.2462E-05  9.3566E-11  2.8088E-04  4.8429E-04  7.3713E-06                                                                                                                                                                                                                                                                                                                                                                                                                                                                                                                                                                                                
     800.0000     125.0000   -4725.0000  4.88444E+02  215.203  0.00000E+00  1.00000E+00  1.00001  6.5925  4.4917E-05  7.1478E-06  1.7210E-03  2.3447E-04  2.9694E-06  2.7472E-05  9.4590E-11  3.1065E-04  3.9240E-04  3.3591E-06                                                                                                                                                                                                                                                                                                                                                                                                                                                                                                                                                                                                
     935.0000     125.0000   -4725.0000  4.88442E+02  215.469  0.00000E+00  1.00000E+00  1.00001  6.5661  1.8379E-05  2.9248E-06  1.7319E-03  2.5918E-04  1.2150E-06  3.0119E-05  9.5226E-11  3.2642E-04  3.5566E-04  1.3745E-06                                                                                                                                                                                                                                                                                                                                                                                                                                                                                                                                                                                                
    1185.0000     125.0000   -4725.0000  4.88437E+02  215.951  0.00000E+00  1.00000E+00  1.00001  6.5487  4.6933E-06  7.4694E-07  1.7695E-03  2.7166E-04  3.1055E-07  3.1405E-05  9.6684E-11  3.3351E-04  3.4079E-04  3.5107E-07                                                                                                                                                                                                                                                                                                                                                                                                                                                                                                                                                                                                