Title="TOUGHREACT V3.30-OMP: Aqueous Total & Species Concentrations in mol/kg h2o, Surface & Exchanged Species in mol/kg h2o, Dry blocks in mol/L medium"                                                                                                                                                                                                                                                                                                                                                                                                                                                                                                                                                                                                                                                                       
Variables= "X(m)"   "Y(m)"   "Z(m)"   "P(bar)"     "T(C)"   "SatGas"   "SatLiq"     "aH2O"       "pH"        "t_na+"        "t_cl-"      "t_hco3-"       "t_ca+2"      "t_so4-2"       "t_mg+2"       "t_ba+2"       "t_al+3"     "t_h4sio4"         "t_k+"                                                                                                                                                                                                                                                                                                                                                                                                                                                                                                                                                                     
Zone T= "1.68901255E+03 yr" I=      9J=     10K=     23F=Point 
     125.0000     125.0000   -5425.0000  5.47748E+02  257.858  0.00000E+00  1.00000E+00  1.00001  6.0204  1.0858E-10  1.0138E-10  1.5730E-02  2.6269E-04  9.8607E-11  2.6476E-05  9.8888E-11  3.5331E-04  3.5918E-04  1.0067E-10                                                                                                                                                                                                                                                                                                                                                                                                                                                                                                                                                                                                
     375.0000     125.0000   -5425.0000  5.47748E+02  257.859  0.00000E+00  1.00000E+00  1.00001  6.0204  1.8933E-10  1.1423E-10  1.5730E-02  2.6268E-04  1.0384E-10  2.6476E-05  9.8888E-11  3.5331E-04  3.5918E-04  1.0671E-10                                                                                                                                                                                                                                                                                                                                                                                                                                                                                                                                                                                                
     625.0000     125.0000   -5425.0000  5.47748E+02  257.859  0.00000E+00  1.00000E+00  1.00001  6.0204  1.2051E-09  2.7583E-10  1.5731E-02  2.6268E-04  1.6972E-10  2.6476E-05  9.8887E-11  3.5331E-04  3.5918E-04  1.8266E-10                                                                                                                                                                                                                                                                                                                                                                                                                                                                                                                                                                                                
     760.0000     125.0000   -5425.0000  5.47747E+02  257.859  0.00000E+00  1.00000E+00  1.00001  6.0204  1.2279E-09  2.7945E-10  1.5731E-02  2.6268E-04  1.7120E-10  2.6476E-05  9.8887E-11  3.5331E-04  3.5918E-04  1.8436E-10                                                                                                                                                                                                                                                                                                                                                                                                                                                                                                                                                                                                
     780.0000     125.0000   -5425.0000  5.47747E+02  257.859  0.00000E+00  1.00000E+00  1.00001  6.0204  1.1851E-09  2.7265E-10  1.5731E-02  2.6268E-04  1.6842E-10  2.6476E-05  9.8887E-11  3.5331E-04  3.5918E-04  1.8116E-10                                                                                                                                                                                                                                                                                                                                                                                                                                                                                                                                                                                                
     800.0000     125.0000   -5425.0000  5.47747E+02  257.859  0.00000E+00  1.00000E+00  1.00001  6.0204  5.0462E-10  1.6439E-10  1.5731E-02  2.6268E-04  1.2429E-10  2.6476E-05  9.8887E-11  3.5331E-04  3.5918E-04  1.3028E-10                                                                                                                                                                                                                                                                                                                                                                                                                                                                                                                                                                                                
     935.0000     125.0000   -5425.0000  5.47746E+02  257.859  0.00000E+00  1.00000E+00  1.00001  6.0204  1.9836E-10  1.1566E-10  1.5730E-02  2.6268E-04  1.0443E-10  2.6476E-05  9.8888E-11  3.5331E-04  3.5918E-04  1.0738E-10                                                                                                                                                                                                                                                                                                                                                                                                                                                                                                                                                                                                
    1185.0000     125.0000   -5425.0000  5.47743E+02  257.859  0.00000E+00  1.00000E+00  1.00001  6.0204  1.1175E-10  1.0189E-10  1.5730E-02  2.6268E-04  9.8813E-11  2.6476E-05  9.8889E-11  3.5331E-04  3.5918E-04  1.0091E-10                                                                                                                                                                                                                                                                                                                                                                                                                                                                                                                                                                                                
    1435.0000     125.0000   -5425.0000  5.47741E+02  257.859  0.00000E+00  1.00000E+00  1.00001  6.0204  1.0090E-10  1.0016E-10  1.5730E-02  2.6268E-04  9.8112E-11  2.6476E-05  9.8890E-11  3.5331E-04  3.5918E-04  1.0010E-10                                                                                                                                                                                                                                                                                                                                                                                                                                                                                                                                                                                                
     125.0000     125.0000   -5225.0000  5.31108E+02  238.179  0.00000E+00  1.00000E+00  1.00001  6.2506  1.7254E-09  3.5872E-10  5.6745E-03  2.7252E-04  2.1042E-10  2.9103E-05  1.0090E-10  3.5092E-04  3.4589E-04  2.2160E-10                                                                                                                                                                                                                                                                                                                                                                                                                                                                                                                                                                                                
     375.0000     125.0000   -5225.0000  5.31109E+02  238.178  0.00000E+00  1.00000E+00  1.00001  6.2507  1.3554E-08  2.2413E-09  5.6743E-03  2.7251E-04  1.0031E-09  2.9102E-05  1.0090E-10  3.5091E-04  3.4590E-04  1.1063E-09                                                                                                                                                                                                                                                                                                                                                                                                                                                                                                                                                                                                
     625.0000     125.0000   -5225.0000  5.31109E+02  238.179  0.00000E+00  1.00000E+00  1.00001  6.2507  1.3422E-07  2.1446E-08  5.6745E-03  2.7240E-04  9.0915E-09  2.9092E-05  1.0090E-10  3.5086E-04  3.4602E-04  1.0131E-08                                                                                                                                                                                                                                                                                                                                                                                                                                                                                                                                                                                                
     760.0000     125.0000   -5225.0000  5.31108E+02  238.179  0.00000E+00  1.00000E+00  1.00001  6.2507  1.3625E-07  2.1769E-08  5.6746E-03  2.7240E-04  9.2275E-09  2.9092E-05  1.0090E-10  3.5087E-04  3.4601E-04  1.0283E-08                                                                                                                                                                                                                                                                                                                                                                                                                                                                                                                                                                                                
     780.0000     125.0000   -5225.0000  5.31108E+02  238.179  0.00000E+00  1.00000E+00  1.00001  6.2507  1.3106E-07  2.0942E-08  5.6746E-03  2.7241E-04  8.8793E-09  2.9092E-05  1.0090E-10  3.5087E-04  3.4600E-04  9.8943E-09                                                                                                                                                                                                                                                                                                                                                                                                                                                                                                                                                                                                
     800.0000     125.0000   -5225.0000  5.31108E+02  238.179  0.00000E+00  1.00000E+00  1.00001  6.2507  5.0986E-08  8.1986E-09  5.6746E-03  2.7248E-04  3.5120E-09  2.9099E-05  1.0090E-10  3.5090E-04  3.4593E-04  3.9058E-09                                                                                                                                                                                                                                                                                                                                                                                                                                                                                                                                                                                                
     935.0000     125.0000   -5225.0000  5.31106E+02  238.180  0.00000E+00  1.00000E+00  1.00001  6.2506  1.4712E-08  2.4256E-09  5.6748E-03  2.7251E-04  1.0807E-09  2.9102E-05  1.0090E-10  3.5091E-04  3.4590E-04  1.1929E-09                                                                                                                                                                                                                                                                                                                                                                                                                                                                                                                                                                                                
    1185.0000     125.0000   -5225.0000  5.31103E+02  238.183  0.00000E+00  1.00000E+00  1.00001  6.2506  2.2701E-09  4.4541E-10  5.6757E-03  2.7252E-04  2.4693E-10  2.9103E-05  1.0090E-10  3.5092E-04  3.4589E-04  2.6234E-10                                                                                                                                                                                                                                                                                                                                                                                                                                                                                                                                                                                                
    1435.0000     125.0000   -5225.0000  5.31101E+02  238.187  0.00000E+00  1.00000E+00  1.00001  6.2505  3.2036E-10  1.3511E-10  5.6767E-03  2.7252E-04  1.1629E-10  2.9102E-05  1.0090E-10  3.5092E-04  3.4589E-04  1.1652E-10                                                                                                                                                                                                                                                                                                                                                                                                                                                                                                                                                                                                
     125.0000     125.0000   -4975.0000  5.09908E+02  227.261  0.00000E+00  1.00000E+00  1.00001  6.3905  1.2982E-07  2.0744E-08  3.1899E-03  2.7549E-04  8.7191E-09  3.0506E-05  1.0033E-10  3.4393E-04  3.4180E-04  9.8012E-09                                                                                                                                                                                                                                                                                                                                                                                                                                                                                                                                                                                                
     375.0000     125.0000   -4975.0000  5.09910E+02  227.255  0.00000E+00  1.00000E+00  1.00001  6.3911  8.4279E-07  1.3420E-07  3.1892E-03  2.7485E-04  5.6086E-08  3.0441E-05  1.0029E-10  3.4363E-04  3.4248E-04  6.3121E-08                                                                                                                                                                                                                                                                                                                                                                                                                                                                                                                                                                                                
     625.0000     125.0000   -4975.0000  5.09913E+02  227.248  0.00000E+00  1.00000E+00  1.00001  6.3957  6.5663E-06  1.0450E-06  3.1903E-03  2.6945E-04  4.3640E-07  2.9890E-05  1.0020E-10  3.4061E-04  3.4888E-04  4.9115E-07                                                                                                                                                                                                                                                                                                                                                                                                                                                                                                                                                                                                
     760.0000     125.0000   -4975.0000  5.09911E+02  227.248  0.00000E+00  1.00000E+00  1.00001  6.3957  6.6439E-06  1.0574E-06  3.1904E-03  2.6946E-04  4.4156E-07  2.9891E-05  1.0020E-10  3.4079E-04  3.4869E-04  4.9696E-07                                                                                                                                                                                                                                                                                                                                                                                                                                                                                                                                                                                                
     780.0000     125.0000   -4975.0000  5.09911E+02  227.248  0.00000E+00  1.00000E+00  1.00001  6.3954  6.3900E-06  1.0170E-06  3.1903E-03  2.6975E-04  4.2469E-07  2.9921E-05  1.0020E-10  3.4108E-04  3.4822E-04  4.7797E-07                                                                                                                                                                                                                                                                                                                                                                                                                                                                                                                                                                                                
     800.0000     125.0000   -4975.0000  5.09911E+02  227.254  0.00000E+00  1.00000E+00  1.00001  6.3925  2.6655E-06  4.2427E-07  3.1898E-03  2.7320E-04  1.7721E-07  3.0273E-05  1.0025E-10  3.4287E-04  3.4426E-04  1.9944E-07                                                                                                                                                                                                                                                                                                                                                                                                                                                                                                                                                                                                
     935.0000     125.0000   -4975.0000  5.09908E+02  227.258  0.00000E+00  1.00000E+00  1.00001  6.3911  9.0344E-07  1.4385E-07  3.1897E-03  2.7478E-04  6.0117E-08  3.0434E-05  1.0028E-10  3.4358E-04  3.4257E-04  6.7656E-08                                                                                                                                                                                                                                                                                                                                                                                                                                                                                                                                                                                                
    1185.0000     125.0000   -4975.0000  5.09902E+02  227.269  0.00000E+00  1.00000E+00  1.00001  6.3904  1.7277E-07  2.7578E-08  3.1914E-03  2.7544E-04  1.1573E-08  3.0501E-05  1.0033E-10  3.4392E-04  3.4184E-04  1.3013E-08                                                                                                                                                                                                                                                                                                                                                                                                                                                                                                                                                                                                
    1435.0000     125.0000   -4975.0000  5.09898E+02  227.281  0.00000E+00  1.00000E+00  1.00001  6.3901  2.5546E-08  4.1495E-09  3.1934E-03  2.7556E-04  1.7914E-09  3.0511E-05  1.0035E-10  3.4397E-04  3.4173E-04  2.0030E-09                                                                                                                                                                                                                                                                                                                                                                                                                                                                                                                                                                                                
     125.0000     125.0000   -4725.0000  4.88438E+02  215.829  0.00000E+00  1.00000E+00  1.00001  6.5494  3.4526E-06  5.4950E-07  1.7580E-03  2.7289E-04  2.2846E-07  3.1553E-05  9.6479E-11  3.3425E-04  3.3910E-04  2.5828E-07                                                                                                                                                                                                                                                                                                                                                                                                                                                                                                                                                                                                
     375.0000     125.0000   -4725.0000  4.88439E+02  215.420  0.00000E+00  1.00000E+00  1.00001  6.5657  1.7318E-05  2.7560E-06  1.7270E-03  2.6042E-04  1.1449E-06  3.0260E-05  9.5285E-11  3.2769E-04  3.5339E-04  1.2952E-06                                                                                                                                                                                                                                                                                                                                                                                                                                                                                                                                                                                                
     625.0000     125.0000   -4725.0000  4.88441E+02  214.718  0.00000E+00  1.00000E+00  1.00001  6.6552  1.0206E-04  1.6241E-05  1.7132E-03  1.8377E-04  6.7467E-06  2.1966E-05  9.3540E-11  2.7410E-04  5.0236E-04  7.6325E-06                                                                                                                                                                                                                                                                                                                                                                                                                                                                                                                                                                                                
     760.0000     125.0000   -4725.0000  4.88439E+02  214.685  0.00000E+00  1.00000E+00  1.00001  6.6551  1.0265E-04  1.6335E-05  1.7100E-03  1.8428E-04  6.7853E-06  2.2026E-05  9.3462E-11  2.7683E-04  4.9675E-04  7.6766E-06                                                                                                                                                                                                                                                                                                                                                                                                                                                                                                                                                                                                
     780.0000     125.0000   -4725.0000  4.88439E+02  214.665  0.00000E+00  1.00000E+00  1.00001  6.6504  9.8446E-05  1.5666E-05  1.7052E-03  1.8830E-04  6.5070E-06  2.2472E-05  9.3574E-11  2.8094E-04  4.8408E-04  7.3621E-06                                                                                                                                                                                                                                                                                                                                                                                                                                                                                                                                                                                                
     800.0000     125.0000   -4725.0000  4.88439E+02  215.204  0.00000E+00  1.00000E+00  1.00001  6.5926  4.5026E-05  7.1651E-06  1.7212E-03  2.3436E-04  2.9768E-06  2.7460E-05  9.4598E-11  3.1059E-04  3.9256E-04  3.3672E-06                                                                                                                                                                                                                                                                                                                                                                                                                                                                                                                                                                                                
     935.0000     125.0000   -4725.0000  4.88437E+02  215.471  0.00000E+00  1.00000E+00  1.00001  6.5661  1.8372E-05  2.9236E-06  1.7321E-03  2.5918E-04  1.2147E-06  3.0119E-05  9.5236E-11  3.2645E-04  3.5563E-04  1.3740E-06                                                                                                                                                                                                                                                                                                                                                                                                                                                                                                                                                                                                
    1185.0000     125.0000   -4725.0000  4.88432E+02  215.953  0.00000E+00  1.00000E+00  1.00001  6.5487  4.6919E-06  7.4672E-07  1.7698E-03  2.7165E-04  3.1049E-07  3.1404E-05  9.6695E-11  3.3354E-04  3.4076E-04  3.5097E-07                                                                                                                                                                                                                                                                                                                                                                                                                                                                                                                                                                                                