Title="TOUGHREACT V3.30-OMP: Aqueous Total & Species Concentrations in mol/kg h2o, Surface & Exchanged Species in mol/kg h2o, Dry blocks in mol/L medium"                                                                                                                                                                                                                                                                                                                                                                                                                                                                                                                                                                                                                                                                       
Variables= "X(m)"   "Y(m)"   "Z(m)"   "P(bar)"     "T(C)"   "SatGas"   "SatLiq"     "aH2O"       "pH"        "t_na+"        "t_cl-"      "t_hco3-"       "t_ca+2"      "t_so4-2"       "t_mg+2"       "t_ba+2"       "t_al+3"     "t_h4sio4"         "t_k+"                                                                                                                                                                                                                                                                                                                                                                                                                                                                                                                                                                     
Zone T= "2.32278836E+03 yr" I=      9J=     10K=     23F=Point 
     125.0000     125.0000   -5425.0000  5.47659E+02  261.980  0.00000E+00  1.00000E+00  1.00001  5.9759  1.0883E-10  1.0141E-10  1.9372E-02  2.5988E-04  9.7308E-11  2.5896E-05  9.8131E-11  3.5308E-04  3.6273E-04  1.0069E-10                                                                                                                                                                                                                                                                                                                                                                                                                                                                                                                                                                                                
     375.0000     125.0000   -5425.0000  5.47659E+02  261.981  0.00000E+00  1.00000E+00  1.00001  5.9759  1.9127E-10  1.1452E-10  1.9373E-02  2.5988E-04  1.0259E-10  2.5896E-05  9.8130E-11  3.5308E-04  3.6273E-04  1.0685E-10                                                                                                                                                                                                                                                                                                                                                                                                                                                                                                                                                                                                
     625.0000     125.0000   -5425.0000  5.47659E+02  261.981  0.00000E+00  1.00000E+00  1.00001  5.9759  1.2233E-09  2.7868E-10  1.9373E-02  2.5988E-04  1.6866E-10  2.5896E-05  9.8130E-11  3.5308E-04  3.6273E-04  1.8401E-10                                                                                                                                                                                                                                                                                                                                                                                                                                                                                                                                                                                                
     760.0000     125.0000   -5425.0000  5.47658E+02  261.981  0.00000E+00  1.00000E+00  1.00001  5.9759  1.2459E-09  2.8227E-10  1.9373E-02  2.5988E-04  1.7010E-10  2.5896E-05  9.8130E-11  3.5308E-04  3.6273E-04  1.8569E-10                                                                                                                                                                                                                                                                                                                                                                                                                                                                                                                                                                                                
     780.0000     125.0000   -5425.0000  5.47658E+02  261.981  0.00000E+00  1.00000E+00  1.00001  5.9759  1.1967E-09  2.7445E-10  1.9373E-02  2.5988E-04  1.6696E-10  2.5896E-05  9.8130E-11  3.5308E-04  3.6273E-04  1.8202E-10                                                                                                                                                                                                                                                                                                                                                                                                                                                                                                                                                                                                
     800.0000     125.0000   -5425.0000  5.47658E+02  261.981  0.00000E+00  1.00000E+00  1.00001  5.9759  5.2014E-10  1.6683E-10  1.9373E-02  2.5988E-04  1.2364E-10  2.5896E-05  9.8130E-11  3.5308E-04  3.6273E-04  1.3144E-10                                                                                                                                                                                                                                                                                                                                                                                                                                                                                                                                                                                                
     935.0000     125.0000   -5425.0000  5.47657E+02  261.981  0.00000E+00  1.00000E+00  1.00001  5.9759  2.0052E-10  1.1599E-10  1.9373E-02  2.5988E-04  1.0318E-10  2.5896E-05  9.8131E-11  3.5308E-04  3.6273E-04  1.0754E-10                                                                                                                                                                                                                                                                                                                                                                                                                                                                                                                                                                                                
    1185.0000     125.0000   -5425.0000  5.47655E+02  261.981  0.00000E+00  1.00000E+00  1.00001  5.9759  1.1210E-10  1.0193E-10  1.9373E-02  2.5988E-04  9.7518E-11  2.5896E-05  9.8132E-11  3.5308E-04  3.6273E-04  1.0093E-10                                                                                                                                                                                                                                                                                                                                                                                                                                                                                                                                                                                                
    1435.0000     125.0000   -5425.0000  5.47653E+02  261.981  0.00000E+00  1.00000E+00  1.00001  5.9759  1.0095E-10  1.0016E-10  1.9373E-02  2.5988E-04  9.6806E-11  2.5896E-05  9.8133E-11  3.5308E-04  3.6273E-04  1.0010E-10                                                                                                                                                                                                                                                                                                                                                                                                                                                                                                                                                                                                
     125.0000     125.0000   -5225.0000  5.31068E+02  238.201  0.00000E+00  1.00000E+00  1.00001  6.2506  1.7307E-09  3.5959E-10  5.6813E-03  2.7230E-04  2.1193E-10  2.9079E-05  1.0122E-10  3.5192E-04  3.4506E-04  2.2201E-10                                                                                                                                                                                                                                                                                                                                                                                                                                                                                                                                                                                                
     375.0000     125.0000   -5225.0000  5.31069E+02  238.200  0.00000E+00  1.00000E+00  1.00001  6.2506  1.3580E-08  2.2456E-09  5.6809E-03  2.7229E-04  1.0103E-09  2.9078E-05  1.0122E-10  3.5192E-04  3.4507E-04  1.1083E-09                                                                                                                                                                                                                                                                                                                                                                                                                                                                                                                                                                                                
     625.0000     125.0000   -5225.0000  5.31069E+02  238.200  0.00000E+00  1.00000E+00  1.00001  6.2507  1.3416E-07  2.1437E-08  5.6809E-03  2.7218E-04  9.1373E-09  2.9067E-05  1.0121E-10  3.5187E-04  3.4519E-04  1.0127E-08                                                                                                                                                                                                                                                                                                                                                                                                                                                                                                                                                                                                
     760.0000     125.0000   -5225.0000  5.31068E+02  238.201  0.00000E+00  1.00000E+00  1.00001  6.2507  1.3613E-07  2.1750E-08  5.6811E-03  2.7218E-04  9.2699E-09  2.9067E-05  1.0121E-10  3.5187E-04  3.4519E-04  1.0274E-08                                                                                                                                                                                                                                                                                                                                                                                                                                                                                                                                                                                                
     780.0000     125.0000   -5225.0000  5.31068E+02  238.201  0.00000E+00  1.00000E+00  1.00001  6.2507  1.3028E-07  2.0820E-08  5.6812E-03  2.7219E-04  8.8760E-09  2.9068E-05  1.0121E-10  3.5187E-04  3.4518E-04  9.8366E-09                                                                                                                                                                                                                                                                                                                                                                                                                                                                                                                                                                                                
     800.0000     125.0000   -5225.0000  5.31068E+02  238.201  0.00000E+00  1.00000E+00  1.00001  6.2506  5.2008E-08  8.3618E-09  5.6812E-03  2.7226E-04  3.6003E-09  2.9075E-05  1.0122E-10  3.5191E-04  3.4511E-04  3.9823E-09                                                                                                                                                                                                                                                                                                                                                                                                                                                                                                                                                                                                
     935.0000     125.0000   -5225.0000  5.31067E+02  238.202  0.00000E+00  1.00000E+00  1.00001  6.2506  1.4738E-08  2.4298E-09  5.6814E-03  2.7229E-04  1.0884E-09  2.9078E-05  1.0122E-10  3.5192E-04  3.4507E-04  1.1949E-09                                                                                                                                                                                                                                                                                                                                                                                                                                                                                                                                                                                                
    1185.0000     125.0000   -5225.0000  5.31064E+02  238.206  0.00000E+00  1.00000E+00  1.00001  6.2505  2.2802E-09  4.4704E-10  5.6826E-03  2.7230E-04  2.4895E-10  2.9078E-05  1.0122E-10  3.5192E-04  3.4507E-04  2.6310E-10                                                                                                                                                                                                                                                                                                                                                                                                                                                                                                                                                                                                
    1435.0000     125.0000   -5225.0000  5.31062E+02  238.210  0.00000E+00  1.00000E+00  1.00001  6.2504  3.2198E-10  1.3537E-10  5.6837E-03  2.7230E-04  1.1703E-10  2.9078E-05  1.0122E-10  3.5192E-04  3.4507E-04  1.1664E-10                                                                                                                                                                                                                                                                                                                                                                                                                                                                                                                                                                                                
     125.0000     125.0000   -4975.0000  5.09868E+02  227.273  0.00000E+00  1.00000E+00  1.00001  6.3904  1.2990E-07  2.0757E-08  3.1920E-03  2.7538E-04  8.7435E-09  3.0493E-05  1.0046E-10  3.4440E-04  3.4142E-04  9.8073E-09                                                                                                                                                                                                                                                                                                                                                                                                                                                                                                                                                                                                
     375.0000     125.0000   -4975.0000  5.09871E+02  227.266  0.00000E+00  1.00000E+00  1.00001  6.3910  8.4355E-07  1.3433E-07  3.1911E-03  2.7474E-04  5.6260E-08  3.0429E-05  1.0042E-10  3.4410E-04  3.4210E-04  6.3178E-08                                                                                                                                                                                                                                                                                                                                                                                                                                                                                                                                                                                                
     625.0000     125.0000   -4975.0000  5.09873E+02  227.258  0.00000E+00  1.00000E+00  1.00001  6.3956  6.5492E-06  1.0423E-06  3.1920E-03  2.6936E-04  4.3619E-07  2.9879E-05  1.0033E-10  3.4106E-04  3.4849E-04  4.8988E-07                                                                                                                                                                                                                                                                                                                                                                                                                                                                                                                                                                                                
     760.0000     125.0000   -4975.0000  5.09872E+02  227.259  0.00000E+00  1.00000E+00  1.00001  6.3956  6.6233E-06  1.0541E-06  3.1922E-03  2.6937E-04  4.4112E-07  2.9881E-05  1.0033E-10  3.4124E-04  3.4830E-04  4.9542E-07                                                                                                                                                                                                                                                                                                                                                                                                                                                                                                                                                                                                
     780.0000     125.0000   -4975.0000  5.09871E+02  227.259  0.00000E+00  1.00000E+00  1.00001  6.3953  6.3409E-06  1.0092E-06  3.1921E-03  2.6969E-04  4.2231E-07  2.9913E-05  1.0033E-10  3.4154E-04  3.4780E-04  4.7430E-07                                                                                                                                                                                                                                                                                                                                                                                                                                                                                                                                                                                                
     800.0000     125.0000   -4975.0000  5.09871E+02  227.265  0.00000E+00  1.00000E+00  1.00001  6.3925  2.7197E-06  4.3290E-07  3.1916E-03  2.7304E-04  1.8120E-07  3.0255E-05  1.0038E-10  3.4330E-04  3.4394E-04  2.0349E-07                                                                                                                                                                                                                                                                                                                                                                                                                                                                                                                                                                                                
     935.0000     125.0000   -4975.0000  5.09869E+02  227.269  0.00000E+00  1.00000E+00  1.00001  6.3910  9.0306E-07  1.4380E-07  3.1917E-03  2.7468E-04  6.0224E-08  3.0422E-05  1.0041E-10  3.4405E-04  3.4219E-04  6.7628E-08                                                                                                                                                                                                                                                                                                                                                                                                                                                                                                                                                                                                
    1185.0000     125.0000   -4975.0000  5.09863E+02  227.282  0.00000E+00  1.00000E+00  1.00001  6.3903  1.7306E-07  2.7625E-08  3.1935E-03  2.7534E-04  1.1618E-08  3.0488E-05  1.0047E-10  3.4439E-04  3.4146E-04  1.3035E-08                                                                                                                                                                                                                                                                                                                                                                                                                                                                                                                                                                                                
    1435.0000     125.0000   -4975.0000  5.09860E+02  227.294  0.00000E+00  1.00000E+00  1.00001  6.3901  2.5605E-08  4.1589E-09  3.1956E-03  2.7546E-04  1.7992E-09  3.0499E-05  1.0048E-10  3.4444E-04  3.4135E-04  2.0074E-09                                                                                                                                                                                                                                                                                                                                                                                                                                                                                                                                                                                                
     125.0000     125.0000   -4725.0000  4.88397E+02  215.843  0.00000E+00  1.00000E+00  1.00001  6.5492  3.4429E-06  5.4796E-07  1.7593E-03  2.7286E-04  2.2797E-07  3.1548E-05  9.6546E-11  3.3442E-04  3.3897E-04  2.5756E-07                                                                                                                                                                                                                                                                                                                                                                                                                                                                                                                                                                                                
     375.0000     125.0000   -4725.0000  4.88399E+02  215.433  0.00000E+00  1.00000E+00  1.00001  6.5655  1.7279E-05  2.7498E-06  1.7282E-03  2.6042E-04  1.1430E-06  3.0258E-05  9.5347E-11  3.2785E-04  3.5324E-04  1.2923E-06                                                                                                                                                                                                                                                                                                                                                                                                                                                                                                                                                                                                
     625.0000     125.0000   -4725.0000  4.88401E+02  214.729  0.00000E+00  1.00000E+00  1.00001  6.6548  1.0176E-04  1.6194E-05  1.7139E-03  1.8396E-04  6.7292E-06  2.1987E-05  9.3587E-11  2.7427E-04  5.0178E-04  7.6103E-06                                                                                                                                                                                                                                                                                                                                                                                                                                                                                                                                                                                                
     760.0000     125.0000   -4725.0000  4.88400E+02  214.695  0.00000E+00  1.00000E+00  1.00001  6.6547  1.0232E-04  1.6283E-05  1.7107E-03  1.8451E-04  6.7657E-06  2.2050E-05  9.3508E-11  2.7702E-04  4.9611E-04  7.6520E-06                                                                                                                                                                                                                                                                                                                                                                                                                                                                                                                                                                                                
     780.0000     125.0000   -4725.0000  4.88399E+02  214.675  0.00000E+00  1.00000E+00  1.00001  6.6496  9.7714E-05  1.5549E-05  1.7056E-03  1.8884E-04  6.4606E-06  2.2530E-05  9.3625E-11  2.8127E-04  4.8281E-04  7.3074E-06                                                                                                                                                                                                                                                                                                                                                                                                                                                                                                                                                                                                
     800.0000     125.0000   -4725.0000  4.88399E+02  215.216  0.00000E+00  1.00000E+00  1.00001  6.5930  4.5602E-05  7.2567E-06  1.7225E-03  2.3378E-04  3.0163E-06  2.7396E-05  9.4644E-11  3.1030E-04  3.9344E-04  3.4103E-06                                                                                                                                                                                                                                                                                                                                                                                                                                                                                                                                                                                                
     935.0000     125.0000   -4725.0000  4.88398E+02  215.485  0.00000E+00  1.00000E+00  1.00001  6.5659  1.8323E-05  2.9159E-06  1.7333E-03  2.5919E-04  1.2121E-06  3.0119E-05  9.5299E-11  3.2662E-04  3.5546E-04  1.3704E-06                                                                                                                                                                                                                                                                                                                                                                                                                                                                                                                                                                                                
    1185.0000     125.0000   -4725.0000  4.88395E+02  215.968  0.00000E+00  1.00000E+00  1.00001  6.5485  4.6812E-06  7.4501E-07  1.7711E-03  2.7163E-04  3.0999E-07  3.1400E-05  9.6762E-11  3.3372E-04  3.4062E-04  3.5017E-07                                                                                                                                                                                                                                                                                                                                                                                                                                                                                                                                                                                                