Title="TOUGHREACT V3.30-OMP: Aqueous Total & Species Concentrations in mol/kg h2o, Surface & Exchanged Species in mol/kg h2o, Dry blocks in mol/L medium"                                                                                                                                                                                                                                                                                                                                                                                                                                                                                                                                                                                                                                                                       
Variables= "X(m)"   "Y(m)"   "Z(m)"   "P(bar)"     "T(C)"   "SatGas"   "SatLiq"     "aH2O"       "pH"        "t_na+"        "t_cl-"      "t_hco3-"       "t_ca+2"      "t_so4-2"       "t_mg+2"       "t_ba+2"       "t_al+3"     "t_h4sio4"         "t_k+"                                                                                                                                                                                                                                                                                                                                                                                                                                                                                                                                                                     
Zone T= "3.16887907E+02 yr" I=      9J=     10K=     23F=Point 
     125.0000     125.0000   -5425.0000  5.46058E+02  248.930  0.00000E+00  1.00000E+00  1.00001  6.1212  1.0806E-10  1.0131E-10  9.9504E-03  2.6805E-04  1.0047E-10  2.7708E-05  9.9974E-11  3.5263E-04  3.5292E-04  1.0063E-10                                                                                                                                                                                                                                                                                                                                                                                                                                                                                                                                                                                                
     375.0000     125.0000   -5425.0000  5.46057E+02  248.930  0.00000E+00  1.00000E+00  1.00001  6.1212  1.8518E-10  1.1358E-10  9.9506E-03  2.6805E-04  1.0556E-10  2.7708E-05  9.9973E-11  3.5263E-04  3.5292E-04  1.0640E-10                                                                                                                                                                                                                                                                                                                                                                                                                                                                                                                                                                                                
     625.0000     125.0000   -5425.0000  5.46051E+02  248.931  0.00000E+00  1.00000E+00  1.00001  6.1212  1.1669E-09  2.6980E-10  9.9509E-03  2.6805E-04  1.7042E-10  2.7708E-05  9.9973E-11  3.5263E-04  3.5292E-04  1.7981E-10                                                                                                                                                                                                                                                                                                                                                                                                                                                                                                                                                                                                
     760.0000     125.0000   -5425.0000  5.46045E+02  248.931  0.00000E+00  1.00000E+00  1.00001  6.1212  1.1897E-09  2.7342E-10  9.9508E-03  2.6805E-04  1.7192E-10  2.7708E-05  9.9973E-11  3.5263E-04  3.5292E-04  1.8152E-10                                                                                                                                                                                                                                                                                                                                                                                                                                                                                                                                                                                                
     780.0000     125.0000   -5425.0000  5.46044E+02  248.931  0.00000E+00  1.00000E+00  1.00001  6.1212  1.1604E-09  2.6876E-10  9.9508E-03  2.6805E-04  1.6999E-10  2.7708E-05  9.9973E-11  3.5263E-04  3.5292E-04  1.7933E-10                                                                                                                                                                                                                                                                                                                                                                                                                                                                                                                                                                                                
     800.0000     125.0000   -5425.0000  5.46043E+02  248.931  0.00000E+00  1.00000E+00  1.00001  6.1212  4.6351E-10  1.5787E-10  9.9508E-03  2.6805E-04  1.2395E-10  2.7708E-05  9.9973E-11  3.5263E-04  3.5292E-04  1.2721E-10                                                                                                                                                                                                                                                                                                                                                                                                                                                                                                                                                                                                
     935.0000     125.0000   -5425.0000  5.46036E+02  248.931  0.00000E+00  1.00000E+00  1.00001  6.1212  1.9347E-10  1.1490E-10  9.9507E-03  2.6805E-04  1.0611E-10  2.7708E-05  9.9973E-11  3.5263E-04  3.5292E-04  1.0702E-10                                                                                                                                                                                                                                                                                                                                                                                                                                                                                                                                                                                                
    1185.0000     125.0000   -5425.0000  5.46021E+02  248.930  0.00000E+00  1.00000E+00  1.00001  6.1212  1.1091E-10  1.0176E-10  9.9506E-03  2.6805E-04  1.0065E-10  2.7708E-05  9.9973E-11  3.5263E-04  3.5292E-04  1.0085E-10                                                                                                                                                                                                                                                                                                                                                                                                                                                                                                                                                                                                
    1435.0000     125.0000   -5425.0000  5.46010E+02  248.930  0.00000E+00  1.00000E+00  1.00001  6.1212  1.0080E-10  1.0015E-10  9.9506E-03  2.6805E-04  9.9987E-11  2.7708E-05  9.9974E-11  3.5264E-04  3.5292E-04  1.0009E-10                                                                                                                                                                                                                                                                                                                                                                                                                                                                                                                                                                                                
     125.0000     125.0000   -5225.0000  5.29330E+02  238.136  0.00000E+00  1.00000E+00  1.00001  6.2508  1.7081E-09  3.5594E-10  5.6614E-03  2.7302E-04  2.0679E-10  2.9157E-05  1.0021E-10  3.4873E-04  3.4771E-04  2.2030E-10                                                                                                                                                                                                                                                                                                                                                                                                                                                                                                                                                                                                
     375.0000     125.0000   -5225.0000  5.29330E+02  238.136  0.00000E+00  1.00000E+00  1.00001  6.2508  1.3426E-08  2.2206E-09  5.6615E-03  2.7301E-04  9.8263E-10  2.9156E-05  1.0021E-10  3.4872E-04  3.4772E-04  1.0966E-09                                                                                                                                                                                                                                                                                                                                                                                                                                                                                                                                                                                                
     625.0000     125.0000   -5225.0000  5.29324E+02  238.137  0.00000E+00  1.00000E+00  1.00001  6.2508  1.3351E-07  2.1331E-08  5.6619E-03  2.7290E-04  8.9363E-09  2.9145E-05  1.0021E-10  3.4867E-04  3.4784E-04  1.0077E-08                                                                                                                                                                                                                                                                                                                                                                                                                                                                                                                                                                                                
     760.0000     125.0000   -5225.0000  5.29317E+02  238.137  0.00000E+00  1.00000E+00  1.00001  6.2509  1.3591E-07  2.1712E-08  5.6618E-03  2.7290E-04  9.0948E-09  2.9145E-05  1.0021E-10  3.4868E-04  3.4783E-04  1.0256E-08                                                                                                                                                                                                                                                                                                                                                                                                                                                                                                                                                                                                
     780.0000     125.0000   -5225.0000  5.29316E+02  238.137  0.00000E+00  1.00000E+00  1.00001  6.2508  1.3222E-07  2.1125E-08  5.6618E-03  2.7290E-04  8.8506E-09  2.9145E-05  1.0021E-10  3.4868E-04  3.4783E-04  9.9806E-09                                                                                                                                                                                                                                                                                                                                                                                                                                                                                                                                                                                                
     800.0000     125.0000   -5225.0000  5.29315E+02  238.137  0.00000E+00  1.00000E+00  1.00001  6.2508  4.7385E-08  7.6246E-09  5.6617E-03  2.7298E-04  3.2317E-09  2.9153E-05  1.0021E-10  3.4871E-04  3.4775E-04  3.6362E-09                                                                                                                                                                                                                                                                                                                                                                                                                                                                                                                                                                                                
     935.0000     125.0000   -5225.0000  5.29307E+02  238.136  0.00000E+00  1.00000E+00  1.00001  6.2508  1.4572E-08  2.4031E-09  5.6616E-03  2.7301E-04  1.0585E-09  2.9156E-05  1.0021E-10  3.4872E-04  3.4772E-04  1.1823E-09                                                                                                                                                                                                                                                                                                                                                                                                                                                                                                                                                                                                
    1185.0000     125.0000   -5225.0000  5.29288E+02  238.137  0.00000E+00  1.00000E+00  1.00001  6.2507  2.2289E-09  4.3880E-10  5.6617E-03  2.7302E-04  2.4126E-10  2.9157E-05  1.0021E-10  3.4872E-04  3.4771E-04  2.5924E-10                                                                                                                                                                                                                                                                                                                                                                                                                                                                                                                                                                                                
    1435.0000     125.0000   -5225.0000  5.29273E+02  238.138  0.00000E+00  1.00000E+00  1.00001  6.2507  3.1460E-10  1.3418E-10  5.6621E-03  2.7302E-04  1.1454E-10  2.9157E-05  1.0021E-10  3.4873E-04  3.4771E-04  1.1608E-10                                                                                                                                                                                                                                                                                                                                                                                                                                                                                                                                                                                                
     125.0000     125.0000   -4975.0000  5.08177E+02  227.228  0.00000E+00  1.00000E+00  1.00001  6.3907  1.2901E-07  2.0614E-08  3.1844E-03  2.7572E-04  8.6238E-09  3.0534E-05  1.0005E-10  3.4292E-04  3.4262E-04  9.7404E-09                                                                                                                                                                                                                                                                                                                                                                                                                                                                                                                                                                                                
     375.0000     125.0000   -4975.0000  5.08182E+02  227.225  0.00000E+00  1.00000E+00  1.00001  6.3913  8.3568E-07  1.3307E-07  3.1841E-03  2.7509E-04  5.5350E-08  3.0469E-05  1.0001E-10  3.4264E-04  3.4329E-04  6.2587E-08                                                                                                                                                                                                                                                                                                                                                                                                                                                                                                                                                                                                
     625.0000     125.0000   -4975.0000  5.08180E+02  227.221  0.00000E+00  1.00000E+00  1.00001  6.3958  6.5282E-06  1.0389E-06  3.1857E-03  2.6972E-04  4.3190E-07  2.9920E-05  9.9932E-11  3.3970E-04  3.4961E-04  4.8829E-07                                                                                                                                                                                                                                                                                                                                                                                                                                                                                                                                                                                                
     760.0000     125.0000   -4975.0000  5.08170E+02  227.220  0.00000E+00  1.00000E+00  1.00001  6.3958  6.6269E-06  1.0546E-06  3.1856E-03  2.6971E-04  4.3842E-07  2.9919E-05  9.9931E-11  3.3987E-04  3.4945E-04  4.9567E-07                                                                                                                                                                                                                                                                                                                                                                                                                                                                                                                                                                                                
     780.0000     125.0000   -4975.0000  5.08168E+02  227.220  0.00000E+00  1.00000E+00  1.00001  6.3957  6.4402E-06  1.0249E-06  3.1854E-03  2.6994E-04  4.2606E-07  2.9944E-05  9.9932E-11  3.4012E-04  3.4904E-04  4.8171E-07                                                                                                                                                                                                                                                                                                                                                                                                                                                                                                                                                                                                
     800.0000     125.0000   -4975.0000  5.08166E+02  227.225  0.00000E+00  1.00000E+00  1.00001  6.3925  2.4472E-06  3.8951E-07  3.1847E-03  2.7363E-04  1.6193E-07  3.0321E-05  9.9975E-11  3.4199E-04  3.4484E-04  1.8310E-07                                                                                                                                                                                                                                                                                                                                                                                                                                                                                                                                                                                                
     935.0000     125.0000   -4975.0000  5.08153E+02  227.226  0.00000E+00  1.00000E+00  1.00001  6.3913  8.9669E-07  1.4278E-07  3.1842E-03  2.7502E-04  5.9385E-08  3.0462E-05  1.0000E-10  3.4258E-04  3.4338E-04  6.7150E-08                                                                                                                                                                                                                                                                                                                                                                                                                                                                                                                                                                                                
    1185.0000     125.0000   -4975.0000  5.08118E+02  227.231  0.00000E+00  1.00000E+00  1.00001  6.3907  1.7002E-07  2.7140E-08  3.1848E-03  2.7568E-04  1.1336E-08  3.0529E-05  1.0005E-10  3.4290E-04  3.4266E-04  1.2807E-08                                                                                                                                                                                                                                                                                                                                                                                                                                                                                                                                                                                                
    1435.0000     125.0000   -4975.0000  5.08086E+02  227.237  0.00000E+00  1.00000E+00  1.00001  6.3905  2.5076E-08  4.0745E-09  3.1858E-03  2.7580E-04  1.7517E-09  3.0541E-05  1.0006E-10  3.4294E-04  3.4256E-04  1.9678E-09                                                                                                                                                                                                                                                                                                                                                                                                                                                                                                                                                                                                
     125.0000     125.0000   -4725.0000  4.86775E+02  215.794  0.00000E+00  1.00000E+00  1.00001  6.5498  3.4556E-06  5.4998E-07  1.7548E-03  2.7296E-04  2.2834E-07  3.1565E-05  9.6351E-11  3.3388E-04  3.3938E-04  2.5851E-07                                                                                                                                                                                                                                                                                                                                                                                                                                                                                                                                                                                                
     375.0000     125.0000   -4725.0000  4.86794E+02  215.418  0.00000E+00  1.00000E+00  1.00001  6.5657  1.7394E-05  2.7680E-06  1.7269E-03  2.6042E-04  1.1485E-06  3.0260E-05  9.5261E-11  3.2739E-04  3.5371E-04  1.3009E-06                                                                                                                                                                                                                                                                                                                                                                                                                                                                                                                                                                                                
     625.0000     125.0000   -4725.0000  4.86797E+02  214.767  0.00000E+00  1.00000E+00  1.00001  6.6549  1.0278E-04  1.6356E-05  1.7176E-03  1.8347E-04  6.7901E-06  2.1930E-05  9.3663E-11  2.7441E-04  5.0235E-04  7.6864E-06                                                                                                                                                                                                                                                                                                                                                                                                                                                                                                                                                                                                
     760.0000     125.0000   -4725.0000  4.86782E+02  214.764  0.00000E+00  1.00000E+00  1.00001  6.6545  1.0361E-04  1.6488E-05  1.7171E-03  1.8391E-04  6.8447E-06  2.1979E-05  9.3669E-11  2.7738E-04  4.9650E-04  7.7484E-06                                                                                                                                                                                                                                                                                                                                                                                                                                                                                                                                                                                                
     780.0000     125.0000   -4725.0000  4.86780E+02  214.753  0.00000E+00  1.00000E+00  1.00001  6.6505  1.0026E-04  1.5955E-05  1.7134E-03  1.8729E-04  6.6232E-06  2.2353E-05  9.3782E-11  2.8122E-04  4.8517E-04  7.4981E-06                                                                                                                                                                                                                                                                                                                                                                                                                                                                                                                                                                                                
     800.0000     125.0000   -4725.0000  4.86777E+02  215.205  0.00000E+00  1.00000E+00  1.00001  6.5894  4.1595E-05  6.6191E-06  1.7194E-03  2.3770E-04  2.7470E-06  2.7823E-05  9.4616E-11  3.1273E-04  3.8713E-04  3.1107E-06                                                                                                                                                                                                                                                                                                                                                                                                                                                                                                                                                                                                
     935.0000     125.0000   -4725.0000  4.86756E+02  215.450  0.00000E+00  1.00000E+00  1.00001  6.5663  1.8361E-05  2.9219E-06  1.7302E-03  2.5926E-04  1.2125E-06  3.0131E-05  9.5157E-11  3.2617E-04  3.5585E-04  1.3732E-06                                                                                                                                                                                                                                                                                                                                                                                                                                                                                                                                                                                                
    1185.0000     125.0000   -4725.0000  4.86689E+02  215.908  0.00000E+00  1.00000E+00  1.00001  6.5492  4.6301E-06  7.3688E-07  1.7656E-03  2.7178E-04  3.0597E-07  3.1424E-05  9.6539E-11  3.3318E-04  3.4098E-04  3.4634E-07                                                                                                                                                                                                                                                                                                                                                                                                                                                                                                                                                                                                