Title="TOUGHREACT V3.30-OMP: Aqueous Total & Species Concentrations in mol/kg h2o, Surface & Exchanged Species in mol/kg h2o, Dry blocks in mol/L medium"                                                                                                                                                                                                                                                                                                                                                                                                                                                                                                                                                                                                                                                                       
Variables= "X(m)"   "Y(m)"   "Z(m)"   "P(bar)"     "T(C)"   "SatGas"   "SatLiq"     "aH2O"       "pH"        "t_na+"        "t_cl-"      "t_hco3-"       "t_ca+2"      "t_so4-2"       "t_mg+2"       "t_ba+2"       "t_al+3"     "t_h4sio4"         "t_k+"                                                                                                                                                                                                                                                                                                                                                                                                                                                                                                                                                                     
Zone T= "2.12314898E+02 yr" I=      9J=     10K=     23F=Point 
     125.0000     125.0000   -5425.0000  5.40326E+02  248.215  0.00000E+00  1.00000E+00  1.00001  6.1295  1.0605E-10  1.0099E-10  9.5887E-03  2.6842E-04  1.0043E-10  2.7805E-05  1.0003E-10  3.5250E-04  3.5249E-04  1.0048E-10                                                                                                                                                                                                                                                                                                                                                                                                                                                                                                                                                                                                
     375.0000     125.0000   -5425.0000  5.40325E+02  248.216  0.00000E+00  1.00000E+00  1.00001  6.1295  1.6775E-10  1.1081E-10  9.5890E-03  2.6842E-04  1.0451E-10  2.7805E-05  1.0003E-10  3.5250E-04  3.5249E-04  1.0510E-10                                                                                                                                                                                                                                                                                                                                                                                                                                                                                                                                                                                                
     625.0000     125.0000   -5425.0000  5.40324E+02  248.217  0.00000E+00  1.00000E+00  1.00001  6.1295  9.8750E-10  2.4126E-10  9.5893E-03  2.6842E-04  1.5871E-10  2.7804E-05  1.0003E-10  3.5250E-04  3.5249E-04  1.6640E-10                                                                                                                                                                                                                                                                                                                                                                                                                                                                                                                                                                                                
     760.0000     125.0000   -5425.0000  5.40323E+02  248.216  0.00000E+00  1.00000E+00  1.00001  6.1295  1.0095E-09  2.4476E-10  9.5892E-03  2.6842E-04  1.6017E-10  2.7804E-05  1.0003E-10  3.5250E-04  3.5249E-04  1.6804E-10                                                                                                                                                                                                                                                                                                                                                                                                                                                                                                                                                                                                
     780.0000     125.0000   -5425.0000  5.40323E+02  248.216  0.00000E+00  1.00000E+00  1.00001  6.1295  9.8627E-10  2.4106E-10  9.5892E-03  2.6842E-04  1.5863E-10  2.7804E-05  1.0003E-10  3.5250E-04  3.5249E-04  1.6631E-10                                                                                                                                                                                                                                                                                                                                                                                                                                                                                                                                                                                                
     800.0000     125.0000   -5425.0000  5.40323E+02  248.216  0.00000E+00  1.00000E+00  1.00001  6.1295  3.9906E-10  1.4762E-10  9.5891E-03  2.6842E-04  1.1980E-10  2.7804E-05  1.0003E-10  3.5250E-04  3.5249E-04  1.2239E-10                                                                                                                                                                                                                                                                                                                                                                                                                                                                                                                                                                                                
     935.0000     125.0000   -5425.0000  5.40322E+02  248.216  0.00000E+00  1.00000E+00  1.00001  6.1295  1.7501E-10  1.1196E-10  9.5890E-03  2.6842E-04  1.0499E-10  2.7805E-05  1.0003E-10  3.5250E-04  3.5249E-04  1.0564E-10                                                                                                                                                                                                                                                                                                                                                                                                                                                                                                                                                                                                
    1185.0000     125.0000   -5425.0000  5.40321E+02  248.216  0.00000E+00  1.00000E+00  1.00001  6.1295  1.0839E-10  1.0136E-10  9.5888E-03  2.6842E-04  1.0059E-10  2.7805E-05  1.0003E-10  3.5250E-04  3.5249E-04  1.0066E-10                                                                                                                                                                                                                                                                                                                                                                                                                                                                                                                                                                                                
    1435.0000     125.0000   -5425.0000  5.40319E+02  248.216  0.00000E+00  1.00000E+00  1.00001  6.1295  1.0057E-10  1.0012E-10  9.5888E-03  2.6842E-04  1.0007E-10  2.7805E-05  1.0003E-10  3.5250E-04  3.5249E-04  1.0007E-10                                                                                                                                                                                                                                                                                                                                                                                                                                                                                                                                                                                                
     125.0000     125.0000   -5225.0000  5.23708E+02  238.108  0.00000E+00  1.00000E+00  1.00001  6.2511  1.3471E-09  2.9848E-10  5.6533E-03  2.7306E-04  1.8273E-10  2.9164E-05  1.0015E-10  3.4854E-04  3.4785E-04  1.9329E-10                                                                                                                                                                                                                                                                                                                                                                                                                                                                                                                                                                                                
     375.0000     125.0000   -5225.0000  5.23707E+02  238.109  0.00000E+00  1.00000E+00  1.00001  6.2511  1.1001E-08  1.8347E-09  5.6535E-03  2.7306E-04  8.2139E-10  2.9163E-05  1.0015E-10  3.4854E-04  3.4786E-04  9.1521E-10                                                                                                                                                                                                                                                                                                                                                                                                                                                                                                                                                                                                
     625.0000     125.0000   -5225.0000  5.23705E+02  238.110  0.00000E+00  1.00000E+00  1.00001  6.2511  1.1415E-07  1.8250E-08  5.6539E-03  2.7296E-04  7.6478E-09  2.9154E-05  1.0015E-10  3.4850E-04  3.4795E-04  8.6294E-09                                                                                                                                                                                                                                                                                                                                                                                                                                                                                                                                                                                                
     760.0000     125.0000   -5225.0000  5.23704E+02  238.110  0.00000E+00  1.00000E+00  1.00001  6.2511  1.1656E-07  1.8633E-08  5.6538E-03  2.7296E-04  7.8072E-09  2.9154E-05  1.0015E-10  3.4850E-04  3.4795E-04  8.8094E-09                                                                                                                                                                                                                                                                                                                                                                                                                                                                                                                                                                                                
     780.0000     125.0000   -5225.0000  5.23704E+02  238.110  0.00000E+00  1.00000E+00  1.00001  6.2511  1.1357E-07  1.8157E-08  5.6537E-03  2.7297E-04  7.6090E-09  2.9154E-05  1.0015E-10  3.4850E-04  3.4795E-04  8.5856E-09                                                                                                                                                                                                                                                                                                                                                                                                                                                                                                                                                                                                
     800.0000     125.0000   -5225.0000  5.23704E+02  238.110  0.00000E+00  1.00000E+00  1.00001  6.2511  3.9994E-08  6.4484E-09  5.6537E-03  2.7303E-04  2.7400E-09  2.9161E-05  1.0015E-10  3.4853E-04  3.4788E-04  3.0834E-09                                                                                                                                                                                                                                                                                                                                                                                                                                                                                                                                                                                                
     935.0000     125.0000   -5225.0000  5.23703E+02  238.109  0.00000E+00  1.00000E+00  1.00001  6.2511  1.2039E-08  2.0000E-09  5.6535E-03  2.7305E-04  8.9013E-10  2.9163E-05  1.0015E-10  3.4854E-04  3.4786E-04  9.9290E-10                                                                                                                                                                                                                                                                                                                                                                                                                                                                                                                                                                                                
    1185.0000     125.0000   -5225.0000  5.23701E+02  238.109  0.00000E+00  1.00000E+00  1.00001  6.2511  1.7904E-09  3.6903E-10  5.6534E-03  2.7306E-04  2.1205E-10  2.9164E-05  1.0015E-10  3.4854E-04  3.4785E-04  2.2644E-10                                                                                                                                                                                                                                                                                                                                                                                                                                                                                                                                                                                                
    1435.0000     125.0000   -5225.0000  5.23698E+02  238.109  0.00000E+00  1.00000E+00  1.00001  6.2511  2.5711E-10  1.2503E-10  5.6535E-03  2.7307E-04  1.1063E-10  2.9164E-05  1.0015E-10  3.4854E-04  3.4785E-04  1.1178E-10                                                                                                                                                                                                                                                                                                                                                                                                                                                                                                                                                                                                
     125.0000     125.0000   -4975.0000  5.02943E+02  227.212  0.00000E+00  1.00000E+00  1.00001  6.3909  1.1266E-07  1.8011E-08  3.1817E-03  2.7576E-04  7.5404E-09  3.0539E-05  1.0004E-10  3.4284E-04  3.4266E-04  8.5173E-09                                                                                                                                                                                                                                                                                                                                                                                                                                                                                                                                                                                                
     375.0000     125.0000   -4975.0000  5.02941E+02  227.211  0.00000E+00  1.00000E+00  1.00001  6.3914  7.4977E-07  1.1940E-07  3.1817E-03  2.7518E-04  4.9657E-08  3.0481E-05  1.0001E-10  3.4259E-04  3.4326E-04  5.6162E-08                                                                                                                                                                                                                                                                                                                                                                                                                                                                                                                                                                                                
     625.0000     125.0000   -4975.0000  5.02938E+02  227.209  0.00000E+00  1.00000E+00  1.00001  6.3955  6.0111E-06  9.5664E-07  3.1834E-03  2.7027E-04  3.9757E-07  2.9978E-05  9.9939E-11  3.4002E-04  3.4892E-04  4.4962E-07                                                                                                                                                                                                                                                                                                                                                                                                                                                                                                                                                                                                
     760.0000     125.0000   -4975.0000  5.02937E+02  227.207  0.00000E+00  1.00000E+00  1.00001  6.3956  6.1107E-06  9.7248E-07  3.1832E-03  2.7025E-04  4.0415E-07  2.9976E-05  9.9938E-11  3.4016E-04  3.4879E-04  4.5707E-07                                                                                                                                                                                                                                                                                                                                                                                                                                                                                                                                                                                                
     780.0000     125.0000   -4975.0000  5.02937E+02  227.207  0.00000E+00  1.00000E+00  1.00001  6.3954  5.9460E-06  9.4627E-07  3.1830E-03  2.7046E-04  3.9326E-07  2.9998E-05  9.9938E-11  3.4038E-04  3.4844E-04  4.4475E-07                                                                                                                                                                                                                                                                                                                                                                                                                                                                                                                                                                                                
     800.0000     125.0000   -4975.0000  5.02936E+02  227.211  0.00000E+00  1.00000E+00  1.00001  6.3925  2.2226E-06  3.5376E-07  3.1822E-03  2.7387E-04  1.4704E-07  3.0346E-05  9.9978E-11  3.4203E-04  3.4464E-04  1.6630E-07                                                                                                                                                                                                                                                                                                                                                                                                                                                                                                                                                                                                
     935.0000     125.0000   -4975.0000  5.02935E+02  227.211  0.00000E+00  1.00000E+00  1.00001  6.3914  8.0763E-07  1.2860E-07  3.1817E-03  2.7512E-04  5.3482E-08  3.0474E-05  9.9999E-11  3.4254E-04  3.4335E-04  6.0489E-08                                                                                                                                                                                                                                                                                                                                                                                                                                                                                                                                                                                                
    1185.0000     125.0000   -4975.0000  5.02929E+02  227.214  0.00000E+00  1.00000E+00  1.00001  6.3909  1.4977E-07  2.3918E-08  3.1819E-03  2.7572E-04  9.9943E-09  3.0535E-05  1.0004E-10  3.4283E-04  3.4270E-04  1.1293E-08                                                                                                                                                                                                                                                                                                                                                                                                                                                                                                                                                                                                
    1435.0000     125.0000   -4975.0000  5.02919E+02  227.217  0.00000E+00  1.00000E+00  1.00001  6.3908  2.1106E-08  3.4427E-09  3.1825E-03  2.7583E-04  1.4887E-09  3.0546E-05  1.0005E-10  3.4286E-04  3.4260E-04  1.6709E-09                                                                                                                                                                                                                                                                                                                                                                                                                                                                                                                                                                                                
     125.0000     125.0000   -4725.0000  4.82189E+02  215.928  0.00000E+00  1.00000E+00  1.00001  6.5480  3.4705E-06  5.5235E-07  1.7669E-03  2.7295E-04  2.2934E-07  3.1547E-05  9.6960E-11  3.3399E-04  3.3947E-04  2.5962E-07                                                                                                                                                                                                                                                                                                                                                                                                                                                                                                                                                                                                
     375.0000     125.0000   -4725.0000  4.82182E+02  215.616  0.00000E+00  1.00000E+00  1.00001  6.5630  1.7512E-05  2.7868E-06  1.7445E-03  2.6032E-04  1.1565E-06  3.0225E-05  9.5962E-11  3.2752E-04  3.5394E-04  1.3097E-06                                                                                                                                                                                                                                                                                                                                                                                                                                                                                                                                                                                                
     625.0000     125.0000   -4725.0000  4.82170E+02  215.001  0.00000E+00  1.00000E+00  1.00001  6.6514  1.0358E-04  1.6483E-05  1.7375E-03  1.8368E-04  6.8437E-06  2.1934E-05  9.4388E-11  2.7684E-04  4.9826E-04  7.7464E-06                                                                                                                                                                                                                                                                                                                                                                                                                                                                                                                                                                                                
     760.0000     125.0000   -4725.0000  4.82172E+02  215.005  0.00000E+00  1.00000E+00  1.00001  6.6509  1.0445E-04  1.6621E-05  1.7376E-03  1.8410E-04  6.9006E-06  2.1980E-05  9.4410E-11  2.7983E-04  4.9251E-04  7.8110E-06                                                                                                                                                                                                                                                                                                                                                                                                                                                                                                                                                                                                
     780.0000     125.0000   -4725.0000  4.82172E+02  214.996  0.00000E+00  1.00000E+00  1.00001  6.6470  1.0115E-04  1.6096E-05  1.7341E-03  1.8742E-04  6.6823E-06  2.2348E-05  9.4502E-11  2.8358E-04  4.8158E-04  7.5642E-06                                                                                                                                                                                                                                                                                                                                                                                                                                                                                                                                                                                                
     800.0000     125.0000   -4725.0000  4.82173E+02  215.402  0.00000E+00  1.00000E+00  1.00001  6.5862  4.1458E-05  6.5973E-06  1.7365E-03  2.3812E-04  2.7382E-06  2.7848E-05  9.5305E-11  3.1381E-04  3.8580E-04  3.1004E-06                                                                                                                                                                                                                                                                                                                                                                                                                                                                                                                                                                                                
     935.0000     125.0000   -4725.0000  4.82176E+02  215.627  0.00000E+00  1.00000E+00  1.00001  6.5639  1.8468E-05  2.9389E-06  1.7459E-03  2.5917E-04  1.2197E-06  3.0100E-05  9.5827E-11  3.2629E-04  3.5604E-04  1.3812E-06                                                                                                                                                                                                                                                                                                                                                                                                                                                                                                                                                                                                
    1185.0000     125.0000   -4725.0000  4.82163E+02  216.004  0.00000E+00  1.00000E+00  1.00001  6.5478  4.6272E-06  7.3641E-07  1.7743E-03  2.7179E-04  3.0578E-07  3.1413E-05  9.7084E-11  3.3328E-04  3.4101E-04  3.4612E-07                                                                                                                                                                                                                                                                                                                                                                                                                                                                                                                                                                                                