Title="TOUGHREACT V3.30-OMP: Aqueous Total & Species Concentrations in mol/kg h2o, Surface & Exchanged Species in mol/kg h2o, Dry blocks in mol/L medium"                                                                                                                                                                                                                                                                                                                                                                                                                                                                                                                                                                                                                                                                       
Variables= "X(m)"   "Y(m)"   "Z(m)"   "P(bar)"     "T(C)"   "SatGas"   "SatLiq"     "aH2O"       "pH"        "t_na+"        "t_cl-"      "t_hco3-"       "t_ca+2"      "t_so4-2"       "t_mg+2"       "t_ba+2"       "t_al+3"     "t_h4sio4"         "t_k+"                                                                                                                                                                                                                                                                                                                                                                                                                                                                                                                                                                     
Zone T= "2.85199117E+03 yr" I=      9J=     10K=     23F=Point 
     125.0000     125.0000   -5425.0000  5.47588E+02  265.424  0.00000E+00  1.00000E+00  1.00001  5.9396  1.0904E-10  1.0143E-10  2.3017E-02  2.5741E-04  9.5942E-11  2.5408E-05  9.7333E-11  3.5258E-04  3.6616E-04  1.0070E-10                                                                                                                                                                                                                                                                                                                                                                                                                                                                                                                                                                                                
     375.0000     125.0000   -5425.0000  5.47589E+02  265.425  0.00000E+00  1.00000E+00  1.00001  5.9396  1.9292E-10  1.1477E-10  2.3017E-02  2.5741E-04  1.0124E-10  2.5408E-05  9.7332E-11  3.5258E-04  3.6616E-04  1.0697E-10                                                                                                                                                                                                                                                                                                                                                                                                                                                                                                                                                                                                
     625.0000     125.0000   -5425.0000  5.47589E+02  265.426  0.00000E+00  1.00000E+00  1.00001  5.9396  1.2386E-09  2.8106E-10  2.3018E-02  2.5741E-04  1.6728E-10  2.5407E-05  9.7331E-11  3.5258E-04  3.6616E-04  1.8514E-10                                                                                                                                                                                                                                                                                                                                                                                                                                                                                                                                                                                                
     760.0000     125.0000   -5425.0000  5.47588E+02  265.425  0.00000E+00  1.00000E+00  1.00001  5.9396  1.2609E-09  2.8461E-10  2.3018E-02  2.5741E-04  1.6869E-10  2.5407E-05  9.7332E-11  3.5258E-04  3.6616E-04  1.8681E-10                                                                                                                                                                                                                                                                                                                                                                                                                                                                                                                                                                                                
     780.0000     125.0000   -5425.0000  5.47588E+02  265.425  0.00000E+00  1.00000E+00  1.00001  5.9396  1.2065E-09  2.7595E-10  2.3018E-02  2.5741E-04  1.6526E-10  2.5407E-05  9.7332E-11  3.5258E-04  3.6616E-04  1.8274E-10                                                                                                                                                                                                                                                                                                                                                                                                                                                                                                                                                                                                
     800.0000     125.0000   -5425.0000  5.47588E+02  265.425  0.00000E+00  1.00000E+00  1.00001  5.9396  5.3312E-10  1.6887E-10  2.3018E-02  2.5741E-04  1.2273E-10  2.5407E-05  9.7332E-11  3.5258E-04  3.6616E-04  1.3240E-10                                                                                                                                                                                                                                                                                                                                                                                                                                                                                                                                                                                                
     935.0000     125.0000   -5425.0000  5.47587E+02  265.425  0.00000E+00  1.00000E+00  1.00001  5.9396  2.0234E-10  1.1627E-10  2.3018E-02  2.5741E-04  1.0184E-10  2.5408E-05  9.7333E-11  3.5258E-04  3.6616E-04  1.0768E-10                                                                                                                                                                                                                                                                                                                                                                                                                                                                                                                                                                                                
    1185.0000     125.0000   -5425.0000  5.47585E+02  265.425  0.00000E+00  1.00000E+00  1.00001  5.9396  1.1240E-10  1.0197E-10  2.3017E-02  2.5741E-04  9.6155E-11  2.5408E-05  9.7334E-11  3.5258E-04  3.6616E-04  1.0095E-10                                                                                                                                                                                                                                                                                                                                                                                                                                                                                                                                                                                                
    1435.0000     125.0000   -5425.0000  5.47583E+02  265.425  0.00000E+00  1.00000E+00  1.00001  5.9396  1.0099E-10  1.0015E-10  2.3018E-02  2.5741E-04  9.5435E-11  2.5407E-05  9.7336E-11  3.5258E-04  3.6616E-04  1.0010E-10                                                                                                                                                                                                                                                                                                                                                                                                                                                                                                                                                                                                
     125.0000     125.0000   -5225.0000  5.31039E+02  238.224  0.00000E+00  1.00000E+00  1.00001  6.2504  1.7352E-09  3.6031E-10  5.6880E-03  2.7212E-04  2.1319E-10  2.9058E-05  1.0148E-10  3.5275E-04  3.4438E-04  2.2234E-10                                                                                                                                                                                                                                                                                                                                                                                                                                                                                                                                                                                                
     375.0000     125.0000   -5225.0000  5.31041E+02  238.222  0.00000E+00  1.00000E+00  1.00001  6.2505  1.3602E-08  2.2491E-09  5.6875E-03  2.7211E-04  1.0164E-09  2.9058E-05  1.0148E-10  3.5275E-04  3.4439E-04  1.1099E-09                                                                                                                                                                                                                                                                                                                                                                                                                                                                                                                                                                                                
     625.0000     125.0000   -5225.0000  5.31041E+02  238.221  0.00000E+00  1.00000E+00  1.00001  6.2506  1.3410E-07  2.1429E-08  5.6873E-03  2.7200E-04  9.1753E-09  2.9047E-05  1.0147E-10  3.5270E-04  3.4451E-04  1.0123E-08                                                                                                                                                                                                                                                                                                                                                                                                                                                                                                                                                                                                
     760.0000     125.0000   -5225.0000  5.31040E+02  238.222  0.00000E+00  1.00000E+00  1.00001  6.2505  1.3601E-07  2.1733E-08  5.6876E-03  2.7200E-04  9.3047E-09  2.9047E-05  1.0147E-10  3.5270E-04  3.4451E-04  1.0265E-08                                                                                                                                                                                                                                                                                                                                                                                                                                                                                                                                                                                                
     780.0000     125.0000   -5225.0000  5.31040E+02  238.222  0.00000E+00  1.00000E+00  1.00001  6.2505  1.2965E-07  2.0720E-08  5.6876E-03  2.7200E-04  8.8739E-09  2.9048E-05  1.0147E-10  3.5271E-04  3.4450E-04  9.7896E-09                                                                                                                                                                                                                                                                                                                                                                                                                                                                                                                                                                                                
     800.0000     125.0000   -5225.0000  5.31040E+02  238.222  0.00000E+00  1.00000E+00  1.00001  6.2505  5.2828E-08  8.4927E-09  5.6877E-03  2.7207E-04  3.6723E-09  2.9054E-05  1.0148E-10  3.5274E-04  3.4442E-04  4.0438E-09                                                                                                                                                                                                                                                                                                                                                                                                                                                                                                                                                                                                
     935.0000     125.0000   -5225.0000  5.31039E+02  238.224  0.00000E+00  1.00000E+00  1.00001  6.2504  1.4759E-08  2.4333E-09  5.6880E-03  2.7210E-04  1.0948E-09  2.9057E-05  1.0148E-10  3.5275E-04  3.4439E-04  1.1965E-09                                                                                                                                                                                                                                                                                                                                                                                                                                                                                                                                                                                                
    1185.0000     125.0000   -5225.0000  5.31036E+02  238.228  0.00000E+00  1.00000E+00  1.00001  6.2504  2.2883E-09  4.4835E-10  5.6893E-03  2.7211E-04  2.5063E-10  2.9058E-05  1.0148E-10  3.5275E-04  3.4439E-04  2.6371E-10                                                                                                                                                                                                                                                                                                                                                                                                                                                                                                                                                                                                
    1435.0000     125.0000   -5225.0000  5.31033E+02  238.233  0.00000E+00  1.00000E+00  1.00001  6.2503  3.2330E-10  1.3559E-10  5.6907E-03  2.7211E-04  1.1764E-10  2.9057E-05  1.0148E-10  3.5276E-04  3.4439E-04  1.1674E-10                                                                                                                                                                                                                                                                                                                                                                                                                                                                                                                                                                                                
     125.0000     125.0000   -4975.0000  5.09839E+02  227.283  0.00000E+00  1.00000E+00  1.00001  6.3904  1.2996E-07  2.0767E-08  3.1938E-03  2.7529E-04  8.7638E-09  3.0483E-05  1.0057E-10  3.4479E-04  3.4110E-04  9.8121E-09                                                                                                                                                                                                                                                                                                                                                                                                                                                                                                                                                                                                
     375.0000     125.0000   -4975.0000  5.09842E+02  227.276  0.00000E+00  1.00000E+00  1.00001  6.3910  8.4420E-07  1.3443E-07  3.1928E-03  2.7465E-04  5.6406E-08  3.0418E-05  1.0053E-10  3.4449E-04  3.4178E-04  6.3227E-08                                                                                                                                                                                                                                                                                                                                                                                                                                                                                                                                                                                                
     625.0000     125.0000   -4975.0000  5.09845E+02  227.267  0.00000E+00  1.00000E+00  1.00001  6.3956  6.5347E-06  1.0400E-06  3.1935E-03  2.6929E-04  4.3599E-07  2.9871E-05  1.0043E-10  3.4144E-04  3.4816E-04  4.8880E-07                                                                                                                                                                                                                                                                                                                                                                                                                                                                                                                                                                                                
     760.0000     125.0000   -4975.0000  5.09844E+02  227.268  0.00000E+00  1.00000E+00  1.00001  6.3956  6.6057E-06  1.0513E-06  3.1937E-03  2.6930E-04  4.4072E-07  2.9872E-05  1.0043E-10  3.4162E-04  3.4797E-04  4.9411E-07                                                                                                                                                                                                                                                                                                                                                                                                                                                                                                                                                                                                
     780.0000     125.0000   -4975.0000  5.09843E+02  227.268  0.00000E+00  1.00000E+00  1.00001  6.3953  6.3009E-06  1.0028E-06  3.1936E-03  2.6964E-04  4.2039E-07  2.9907E-05  1.0044E-10  3.4193E-04  3.4745E-04  4.7132E-07                                                                                                                                                                                                                                                                                                                                                                                                                                                                                                                                                                                                
     800.0000     125.0000   -4975.0000  5.09843E+02  227.274  0.00000E+00  1.00000E+00  1.00001  6.3924  2.7624E-06  4.3971E-07  3.1932E-03  2.7292E-04  1.8438E-07  3.0241E-05  1.0049E-10  3.4366E-04  3.4367E-04  2.0669E-07                                                                                                                                                                                                                                                                                                                                                                                                                                                                                                                                                                                                
     935.0000     125.0000   -4975.0000  5.09840E+02  227.279  0.00000E+00  1.00000E+00  1.00001  6.3910  9.0269E-07  1.4374E-07  3.1933E-03  2.7459E-04  6.0309E-08  3.0412E-05  1.0052E-10  3.4444E-04  3.4187E-04  6.7602E-08                                                                                                                                                                                                                                                                                                                                                                                                                                                                                                                                                                                                
    1185.0000     125.0000   -4975.0000  5.09835E+02  227.292  0.00000E+00  1.00000E+00  1.00001  6.3903  1.7327E-07  2.7660E-08  3.1953E-03  2.7525E-04  1.1654E-08  3.0478E-05  1.0058E-10  3.4478E-04  3.4114E-04  1.3051E-08                                                                                                                                                                                                                                                                                                                                                                                                                                                                                                                                                                                                
    1435.0000     125.0000   -4975.0000  5.09832E+02  227.306  0.00000E+00  1.00000E+00  1.00001  6.3900  2.5649E-08  4.1659E-09  3.1975E-03  2.7537E-04  1.8055E-09  3.0488E-05  1.0059E-10  3.4483E-04  3.4103E-04  2.0107E-09                                                                                                                                                                                                                                                                                                                                                                                                                                                                                                                                                                                                
     125.0000     125.0000   -4725.0000  4.88369E+02  215.856  0.00000E+00  1.00000E+00  1.00001  6.5491  3.4347E-06  5.4666E-07  1.7604E-03  2.7284E-04  2.2755E-07  3.1544E-05  9.6603E-11  3.3457E-04  3.3885E-04  2.5695E-07                                                                                                                                                                                                                                                                                                                                                                                                                                                                                                                                                                                                
     375.0000     125.0000   -4725.0000  4.88371E+02  215.444  0.00000E+00  1.00000E+00  1.00001  6.5654  1.7247E-05  2.7446E-06  1.7292E-03  2.6042E-04  1.1414E-06  3.0256E-05  9.5399E-11  3.2798E-04  3.5312E-04  1.2899E-06                                                                                                                                                                                                                                                                                                                                                                                                                                                                                                                                                                                                
     625.0000     125.0000   -4725.0000  4.88372E+02  214.738  0.00000E+00  1.00000E+00  1.00001  6.6544  1.0151E-04  1.6154E-05  1.7145E-03  1.8413E-04  6.7144E-06  2.2005E-05  9.3627E-11  2.7442E-04  5.0130E-04  7.5917E-06                                                                                                                                                                                                                                                                                                                                                                                                                                                                                                                                                                                                
     760.0000     125.0000   -4725.0000  4.88371E+02  214.703  0.00000E+00  1.00000E+00  1.00001  6.6543  1.0204E-04  1.6238E-05  1.7112E-03  1.8470E-04  6.7490E-06  2.2071E-05  9.3547E-11  2.7718E-04  4.9558E-04  7.6312E-06                                                                                                                                                                                                                                                                                                                                                                                                                                                                                                                                                                                                
     780.0000     125.0000   -4725.0000  4.88371E+02  214.684  0.00000E+00  1.00000E+00  1.00001  6.6489  9.7114E-05  1.5454E-05  1.7060E-03  1.8928E-04  6.4226E-06  2.2578E-05  9.3668E-11  2.8155E-04  4.8177E-04  7.2626E-06                                                                                                                                                                                                                                                                                                                                                                                                                                                                                                                                                                                                
     800.0000     125.0000   -4725.0000  4.88371E+02  215.226  0.00000E+00  1.00000E+00  1.00001  6.5933  4.6037E-05  7.3261E-06  1.7237E-03  2.3334E-04  3.0463E-06  2.7347E-05  9.4683E-11  3.1008E-04  3.9411E-04  3.4429E-06                                                                                                                                                                                                                                                                                                                                                                                                                                                                                                                                                                                                
     935.0000     125.0000   -4725.0000  4.88370E+02  215.496  0.00000E+00  1.00000E+00  1.00001  6.5657  1.8281E-05  2.9092E-06  1.7343E-03  2.5920E-04  1.2099E-06  3.0118E-05  9.5352E-11  3.2676E-04  3.5532E-04  1.3672E-06                                                                                                                                                                                                                                                                                                                                                                                                                                                                                                                                                                                                
    1185.0000     125.0000   -4725.0000  4.88367E+02  215.980  0.00000E+00  1.00000E+00  1.00001  6.5483  4.6712E-06  7.4342E-07  1.7722E-03  2.7160E-04  3.0949E-07  3.1396E-05  9.6818E-11  3.3387E-04  3.4050E-04  3.4941E-07                                                                                                                                                                                                                                                                                                                                                                                                                                                                                                                                                                                                