Title="TOUGHREACT V3.30-OMP: Aqueous Total & Species Concentrations in mol/kg h2o, Surface & Exchanged Species in mol/kg h2o, Dry blocks in mol/L medium"                                                                                                                                                                                                                                                                                                                                                                                                                                                                                                                                                                                                                                                                       
Variables= "X(m)"   "Y(m)"   "Z(m)"   "P(bar)"     "T(C)"   "SatGas"   "SatLiq"     "aH2O"       "pH"        "t_na+"        "t_cl-"      "t_hco3-"       "t_ca+2"      "t_so4-2"       "t_mg+2"       "t_ba+2"       "t_al+3"     "t_h4sio4"         "t_k+"                                                                                                                                                                                                                                                                                                                                                                                                                                                                                                                                                                     
Zone T= "1.47986653E+03 yr" I=      9J=     10K=     23F=Point 
     125.0000     125.0000   -5425.0000  5.47775E+02  256.499  0.00000E+00  1.00000E+00  1.00001  6.0354  1.0850E-10  1.0137E-10  1.4679E-02  2.6357E-04  9.8967E-11  2.6666E-05  9.9098E-11  3.5331E-04  3.5812E-04  1.0066E-10                                                                                                                                                                                                                                                                                                                                                                                                                                                                                                                                                                                                
     375.0000     125.0000   -5425.0000  5.47775E+02  256.499  0.00000E+00  1.00000E+00  1.00001  6.0354  1.8869E-10  1.1413E-10  1.4679E-02  2.6357E-04  1.0419E-10  2.6666E-05  9.9097E-11  3.5331E-04  3.5812E-04  1.0666E-10                                                                                                                                                                                                                                                                                                                                                                                                                                                                                                                                                                                                
     625.0000     125.0000   -5425.0000  5.47775E+02  256.500  0.00000E+00  1.00000E+00  1.00001  6.0354  1.1992E-09  2.7489E-10  1.4680E-02  2.6357E-04  1.6995E-10  2.6665E-05  9.9097E-11  3.5331E-04  3.5812E-04  1.8222E-10                                                                                                                                                                                                                                                                                                                                                                                                                                                                                                                                                                                                
     760.0000     125.0000   -5425.0000  5.47774E+02  256.500  0.00000E+00  1.00000E+00  1.00001  6.0354  1.2220E-09  2.7853E-10  1.4679E-02  2.6357E-04  1.7144E-10  2.6665E-05  9.9097E-11  3.5331E-04  3.5812E-04  1.8392E-10                                                                                                                                                                                                                                                                                                                                                                                                                                                                                                                                                                                                
     780.0000     125.0000   -5425.0000  5.47774E+02  256.499  0.00000E+00  1.00000E+00  1.00001  6.0354  1.1813E-09  2.7205E-10  1.4679E-02  2.6357E-04  1.6879E-10  2.6665E-05  9.9097E-11  3.5331E-04  3.5812E-04  1.8088E-10                                                                                                                                                                                                                                                                                                                                                                                                                                                                                                                                                                                                
     800.0000     125.0000   -5425.0000  5.47774E+02  256.499  0.00000E+00  1.00000E+00  1.00001  6.0354  4.9943E-10  1.6357E-10  1.4679E-02  2.6357E-04  1.2441E-10  2.6666E-05  9.9097E-11  3.5331E-04  3.5812E-04  1.2990E-10                                                                                                                                                                                                                                                                                                                                                                                                                                                                                                                                                                                                
     935.0000     125.0000   -5425.0000  5.47772E+02  256.499  0.00000E+00  1.00000E+00  1.00001  6.0354  1.9765E-10  1.1555E-10  1.4679E-02  2.6357E-04  1.0477E-10  2.6666E-05  9.9098E-11  3.5331E-04  3.5812E-04  1.0733E-10                                                                                                                                                                                                                                                                                                                                                                                                                                                                                                                                                                                                
    1185.0000     125.0000   -5425.0000  5.47769E+02  256.499  0.00000E+00  1.00000E+00  1.00001  6.0354  1.1163E-10  1.0187E-10  1.4679E-02  2.6357E-04  9.9172E-11  2.6666E-05  9.9099E-11  3.5331E-04  3.5812E-04  1.0090E-10                                                                                                                                                                                                                                                                                                                                                                                                                                                                                                                                                                                                
    1435.0000     125.0000   -5425.0000  5.47767E+02  256.499  0.00000E+00  1.00000E+00  1.00001  6.0354  1.0089E-10  1.0016E-10  1.4679E-02  2.6357E-04  9.8474E-11  2.6666E-05  9.9100E-11  3.5331E-04  3.5812E-04  1.0010E-10                                                                                                                                                                                                                                                                                                                                                                                                                                                                                                                                                                                                
     125.0000     125.0000   -5225.0000  5.31119E+02  238.173  0.00000E+00  1.00000E+00  1.00001  6.2507  1.7236E-09  3.5844E-10  5.6726E-03  2.7260E-04  2.0993E-10  2.9111E-05  1.0080E-10  3.5059E-04  3.4616E-04  2.2147E-10                                                                                                                                                                                                                                                                                                                                                                                                                                                                                                                                                                                                
     375.0000     125.0000   -5225.0000  5.31120E+02  238.172  0.00000E+00  1.00000E+00  1.00001  6.2507  1.3547E-08  2.2401E-09  5.6724E-03  2.7259E-04  1.0007E-09  2.9110E-05  1.0080E-10  3.5058E-04  3.4617E-04  1.1057E-09                                                                                                                                                                                                                                                                                                                                                                                                                                                                                                                                                                                                
     625.0000     125.0000   -5225.0000  5.31120E+02  238.173  0.00000E+00  1.00000E+00  1.00001  6.2508  1.3424E-07  2.1449E-08  5.6726E-03  2.7248E-04  9.0763E-09  2.9100E-05  1.0079E-10  3.5053E-04  3.4629E-04  1.0132E-08                                                                                                                                                                                                                                                                                                                                                                                                                                                                                                                                                                                                
     760.0000     125.0000   -5225.0000  5.31119E+02  238.173  0.00000E+00  1.00000E+00  1.00001  6.2508  1.3629E-07  2.1775E-08  5.6727E-03  2.7248E-04  9.2133E-09  2.9099E-05  1.0079E-10  3.5054E-04  3.4629E-04  1.0286E-08                                                                                                                                                                                                                                                                                                                                                                                                                                                                                                                                                                                                
     780.0000     125.0000   -5225.0000  5.31118E+02  238.173  0.00000E+00  1.00000E+00  1.00001  6.2507  1.3132E-07  2.0983E-08  5.6728E-03  2.7248E-04  8.8805E-09  2.9100E-05  1.0079E-10  3.5054E-04  3.4628E-04  9.9136E-09                                                                                                                                                                                                                                                                                                                                                                                                                                                                                                                                                                                                
     800.0000     125.0000   -5225.0000  5.31118E+02  238.173  0.00000E+00  1.00000E+00  1.00001  6.2507  5.0629E-08  8.1418E-09  5.6728E-03  2.7255E-04  3.4818E-09  2.9107E-05  1.0080E-10  3.5057E-04  3.4621E-04  3.8791E-09                                                                                                                                                                                                                                                                                                                                                                                                                                                                                                                                                                                                
     935.0000     125.0000   -5225.0000  5.31117E+02  238.174  0.00000E+00  1.00000E+00  1.00001  6.2507  1.4703E-08  2.4240E-09  5.6729E-03  2.7258E-04  1.0781E-09  2.9110E-05  1.0080E-10  3.5058E-04  3.4618E-04  1.1921E-09                                                                                                                                                                                                                                                                                                                                                                                                                                                                                                                                                                                                
    1185.0000     125.0000   -5225.0000  5.31113E+02  238.177  0.00000E+00  1.00000E+00  1.00001  6.2506  2.2665E-09  4.4484E-10  5.6738E-03  2.7259E-04  2.4624E-10  2.9111E-05  1.0080E-10  3.5059E-04  3.4617E-04  2.6207E-10                                                                                                                                                                                                                                                                                                                                                                                                                                                                                                                                                                                                
    1435.0000     125.0000   -5225.0000  5.31110E+02  238.180  0.00000E+00  1.00000E+00  1.00001  6.2506  3.1980E-10  1.3502E-10  5.6747E-03  2.7259E-04  1.1605E-10  2.9110E-05  1.0080E-10  3.5059E-04  3.4617E-04  1.1648E-10                                                                                                                                                                                                                                                                                                                                                                                                                                                                                                                                                                                                
     125.0000     125.0000   -4975.0000  5.09919E+02  227.257  0.00000E+00  1.00000E+00  1.00001  6.3905  1.2980E-07  2.0739E-08  3.1893E-03  2.7552E-04  8.7110E-09  3.0510E-05  1.0029E-10  3.4378E-04  3.4193E-04  9.7992E-09                                                                                                                                                                                                                                                                                                                                                                                                                                                                                                                                                                                                
     375.0000     125.0000   -4975.0000  5.09921E+02  227.251  0.00000E+00  1.00000E+00  1.00001  6.3911  8.4257E-07  1.3417E-07  3.1886E-03  2.7488E-04  5.6031E-08  3.0445E-05  1.0024E-10  3.4348E-04  3.4260E-04  6.3104E-08                                                                                                                                                                                                                                                                                                                                                                                                                                                                                                                                                                                                
     625.0000     125.0000   -4975.0000  5.09924E+02  227.244  0.00000E+00  1.00000E+00  1.00001  6.3957  6.5718E-06  1.0459E-06  3.1897E-03  2.6948E-04  4.3647E-07  2.9893E-05  1.0016E-10  3.4047E-04  3.4901E-04  4.9156E-07                                                                                                                                                                                                                                                                                                                                                                                                                                                                                                                                                                                                
     760.0000     125.0000   -4975.0000  5.09922E+02  227.245  0.00000E+00  1.00000E+00  1.00001  6.3957  6.6506E-06  1.0584E-06  3.1898E-03  2.6949E-04  4.4170E-07  2.9894E-05  1.0016E-10  3.4065E-04  3.4882E-04  4.9746E-07                                                                                                                                                                                                                                                                                                                                                                                                                                                                                                                                                                                                
     780.0000     125.0000   -4975.0000  5.09921E+02  227.245  0.00000E+00  1.00000E+00  1.00001  6.3955  6.4065E-06  1.0196E-06  3.1897E-03  2.6977E-04  4.2548E-07  2.9923E-05  1.0016E-10  3.4092E-04  3.4836E-04  4.7920E-07                                                                                                                                                                                                                                                                                                                                                                                                                                                                                                                                                                                                
     800.0000     125.0000   -4975.0000  5.09921E+02  227.251  0.00000E+00  1.00000E+00  1.00001  6.3925  2.6463E-06  4.2120E-07  3.1892E-03  2.7325E-04  1.7580E-07  3.0278E-05  1.0021E-10  3.4273E-04  3.4436E-04  1.9799E-07                                                                                                                                                                                                                                                                                                                                                                                                                                                                                                                                                                                                
     935.0000     125.0000   -4975.0000  5.09918E+02  227.254  0.00000E+00  1.00000E+00  1.00001  6.3911  9.0351E-07  1.4387E-07  3.1891E-03  2.7482E-04  6.0079E-08  3.0438E-05  1.0024E-10  3.4343E-04  3.4270E-04  6.7661E-08                                                                                                                                                                                                                                                                                                                                                                                                                                                                                                                                                                                                
    1185.0000     125.0000   -4975.0000  5.09912E+02  227.265  0.00000E+00  1.00000E+00  1.00001  6.3904  1.7265E-07  2.7558E-08  3.1907E-03  2.7548E-04  1.1557E-08  3.0505E-05  1.0029E-10  3.4377E-04  3.4197E-04  1.3004E-08                                                                                                                                                                                                                                                                                                                                                                                                                                                                                                                                                                                                
    1435.0000     125.0000   -4975.0000  5.09907E+02  227.277  0.00000E+00  1.00000E+00  1.00001  6.3902  2.5523E-08  4.1457E-09  3.1926E-03  2.7560E-04  1.7885E-09  3.0516E-05  1.0031E-10  3.4382E-04  3.4186E-04  2.0012E-09                                                                                                                                                                                                                                                                                                                                                                                                                                                                                                                                                                                                
     125.0000     125.0000   -4725.0000  4.88449E+02  215.824  0.00000E+00  1.00000E+00  1.00001  6.5495  3.4558E-06  5.5000E-07  1.7575E-03  2.7290E-04  2.2862E-07  3.1554E-05  9.6457E-11  3.3419E-04  3.3915E-04  2.5852E-07                                                                                                                                                                                                                                                                                                                                                                                                                                                                                                                                                                                                
     375.0000     125.0000   -4725.0000  4.88450E+02  215.415  0.00000E+00  1.00000E+00  1.00001  6.5658  1.7332E-05  2.7581E-06  1.7267E-03  2.6042E-04  1.1456E-06  3.0260E-05  9.5265E-11  3.2764E-04  3.5344E-04  1.2962E-06                                                                                                                                                                                                                                                                                                                                                                                                                                                                                                                                                                                                
     625.0000     125.0000   -4725.0000  4.88452E+02  214.715  0.00000E+00  1.00000E+00  1.00001  6.6553  1.0216E-04  1.6256E-05  1.7129E-03  1.8370E-04  6.7523E-06  2.1959E-05  9.3525E-11  2.7405E-04  5.0254E-04  7.6397E-06                                                                                                                                                                                                                                                                                                                                                                                                                                                                                                                                                                                                
     760.0000     125.0000   -4725.0000  4.88450E+02  214.681  0.00000E+00  1.00000E+00  1.00001  6.6552  1.0276E-04  1.6352E-05  1.7098E-03  1.8421E-04  6.7918E-06  2.2018E-05  9.3448E-11  2.7677E-04  4.9695E-04  7.6847E-06                                                                                                                                                                                                                                                                                                                                                                                                                                                                                                                                                                                                
     780.0000     125.0000   -4725.0000  4.88450E+02  214.662  0.00000E+00  1.00000E+00  1.00001  6.6507  9.8691E-05  1.5705E-05  1.7050E-03  1.8812E-04  6.5225E-06  2.2453E-05  9.3557E-11  2.8083E-04  4.8450E-04  7.3804E-06                                                                                                                                                                                                                                                                                                                                                                                                                                                                                                                                                                                                
     800.0000     125.0000   -4725.0000  4.88449E+02  215.201  0.00000E+00  1.00000E+00  1.00001  6.5924  4.4802E-05  7.1294E-06  1.7207E-03  2.3458E-04  2.9615E-06  2.7485E-05  9.4583E-11  3.1071E-04  3.9222E-04  3.3505E-06                                                                                                                                                                                                                                                                                                                                                                                                                                                                                                                                                                                                
     935.0000     125.0000   -4725.0000  4.88447E+02  215.467  0.00000E+00  1.00000E+00  1.00001  6.5661  1.8386E-05  2.9259E-06  1.7317E-03  2.5918E-04  1.2154E-06  3.0119E-05  9.5216E-11  3.2640E-04  3.5568E-04  1.3751E-06                                                                                                                                                                                                                                                                                                                                                                                                                                                                                                                                                                                                
    1185.0000     125.0000   -4725.0000  4.88441E+02  215.948  0.00000E+00  1.00000E+00  1.00001  6.5487  4.6945E-06  7.4712E-07  1.7693E-03  2.7166E-04  3.1059E-07  3.1406E-05  9.6672E-11  3.3348E-04  3.4081E-04  3.5115E-07                                                                                                                                                                                                                                                                                                                                                                                                                                                                                                                                                                                                