Title="TOUGHREACT V3.30-OMP: Aqueous Total & Species Concentrations in mol/kg h2o, Surface & Exchanged Species in mol/kg h2o, Dry blocks in mol/L medium"                                                                                                                                                                                                                                                                                                                                                                                                                                                                                                                                                                                                                                                                       
Variables= "X(m)"   "Y(m)"   "Z(m)"   "P(bar)"     "T(C)"   "SatGas"   "SatLiq"     "aH2O"       "pH"        "t_na+"        "t_cl-"      "t_hco3-"       "t_ca+2"      "t_so4-2"       "t_mg+2"       "t_ba+2"       "t_al+3"     "t_h4sio4"         "t_k+"                                                                                                                                                                                                                                                                                                                                                                                                                                                                                                                                                                     
Zone T= "4.21460917E+02 yr" I=      9J=     10K=     23F=Point 
     125.0000     125.0000   -5425.0000  5.46965E+02  249.616  0.00000E+00  1.00000E+00  1.00001  6.1133  1.0810E-10  1.0131E-10  1.0310E-02  2.6767E-04  1.0036E-10  2.7615E-05  9.9912E-11  3.5274E-04  3.5335E-04  1.0063E-10                                                                                                                                                                                                                                                                                                                                                                                                                                                                                                                                                                                                
     375.0000     125.0000   -5425.0000  5.46963E+02  249.616  0.00000E+00  1.00000E+00  1.00001  6.1133  1.8549E-10  1.1363E-10  1.0310E-02  2.6767E-04  1.0547E-10  2.7615E-05  9.9912E-11  3.5274E-04  3.5335E-04  1.0642E-10                                                                                                                                                                                                                                                                                                                                                                                                                                                                                                                                                                                                
     625.0000     125.0000   -5425.0000  5.46958E+02  249.616  0.00000E+00  1.00000E+00  1.00001  6.1132  1.1697E-09  2.7024E-10  1.0310E-02  2.6767E-04  1.7042E-10  2.7614E-05  9.9911E-11  3.5274E-04  3.5335E-04  1.8002E-10                                                                                                                                                                                                                                                                                                                                                                                                                                                                                                                                                                                                
     760.0000     125.0000   -5425.0000  5.46952E+02  249.616  0.00000E+00  1.00000E+00  1.00001  6.1132  1.1925E-09  2.7387E-10  1.0310E-02  2.6767E-04  1.7193E-10  2.7614E-05  9.9911E-11  3.5274E-04  3.5335E-04  1.8173E-10                                                                                                                                                                                                                                                                                                                                                                                                                                                                                                                                                                                                
     780.0000     125.0000   -5425.0000  5.46951E+02  249.616  0.00000E+00  1.00000E+00  1.00001  6.1132  1.1623E-09  2.6906E-10  1.0310E-02  2.6767E-04  1.6993E-10  2.7614E-05  9.9911E-11  3.5274E-04  3.5335E-04  1.7947E-10                                                                                                                                                                                                                                                                                                                                                                                                                                                                                                                                                                                                
     800.0000     125.0000   -5425.0000  5.46950E+02  249.616  0.00000E+00  1.00000E+00  1.00001  6.1132  4.6792E-10  1.5857E-10  1.0310E-02  2.6767E-04  1.2411E-10  2.7614E-05  9.9912E-11  3.5274E-04  3.5335E-04  1.2754E-10                                                                                                                                                                                                                                                                                                                                                                                                                                                                                                                                                                                                
     935.0000     125.0000   -5425.0000  5.46944E+02  249.616  0.00000E+00  1.00000E+00  1.00001  6.1133  1.9389E-10  1.1496E-10  1.0310E-02  2.6767E-04  1.0602E-10  2.7615E-05  9.9912E-11  3.5274E-04  3.5335E-04  1.0705E-10                                                                                                                                                                                                                                                                                                                                                                                                                                                                                                                                                                                                
    1185.0000     125.0000   -5425.0000  5.46931E+02  249.616  0.00000E+00  1.00000E+00  1.00001  6.1133  1.1099E-10  1.0177E-10  1.0310E-02  2.6767E-04  1.0055E-10  2.7615E-05  9.9912E-11  3.5274E-04  3.5335E-04  1.0085E-10                                                                                                                                                                                                                                                                                                                                                                                                                                                                                                                                                                                                
    1435.0000     125.0000   -5425.0000  5.46921E+02  249.616  0.00000E+00  1.00000E+00  1.00001  6.1133  1.0081E-10  1.0016E-10  1.0310E-02  2.6767E-04  9.9881E-11  2.7615E-05  9.9913E-11  3.5274E-04  3.5335E-04  1.0009E-10                                                                                                                                                                                                                                                                                                                                                                                                                                                                                                                                                                                                
     125.0000     125.0000   -5225.0000  5.30235E+02  238.143  0.00000E+00  1.00000E+00  1.00001  6.2507  1.7152E-09  3.5706E-10  5.6634E-03  2.7298E-04  2.0744E-10  2.9152E-05  1.0026E-10  3.4890E-04  3.4757E-04  2.2082E-10                                                                                                                                                                                                                                                                                                                                                                                                                                                                                                                                                                                                
     375.0000     125.0000   -5225.0000  5.30234E+02  238.143  0.00000E+00  1.00000E+00  1.00001  6.2507  1.3509E-08  2.2339E-09  5.6635E-03  2.7297E-04  9.8902E-10  2.9151E-05  1.0026E-10  3.4889E-04  3.4758E-04  1.1028E-09                                                                                                                                                                                                                                                                                                                                                                                                                                                                                                                                                                                                
     625.0000     125.0000   -5225.0000  5.30229E+02  238.144  0.00000E+00  1.00000E+00  1.00001  6.2508  1.3435E-07  2.1464E-08  5.6638E-03  2.7286E-04  8.9998E-09  2.9140E-05  1.0026E-10  3.4884E-04  3.4770E-04  1.0140E-08                                                                                                                                                                                                                                                                                                                                                                                                                                                                                                                                                                                                
     760.0000     125.0000   -5225.0000  5.30223E+02  238.144  0.00000E+00  1.00000E+00  1.00001  6.2508  1.3648E-07  2.1803E-08  5.6638E-03  2.7286E-04  9.1410E-09  2.9140E-05  1.0026E-10  3.4885E-04  3.4770E-04  1.0299E-08                                                                                                                                                                                                                                                                                                                                                                                                                                                                                                                                                                                                
     780.0000     125.0000   -5225.0000  5.30222E+02  238.144  0.00000E+00  1.00000E+00  1.00001  6.2508  1.3263E-07  2.1191E-08  5.6638E-03  2.7286E-04  8.8859E-09  2.9141E-05  1.0026E-10  3.4885E-04  3.4769E-04  1.0011E-08                                                                                                                                                                                                                                                                                                                                                                                                                                                                                                                                                                                                
     800.0000     125.0000   -5225.0000  5.30221E+02  238.144  0.00000E+00  1.00000E+00  1.00001  6.2507  4.8018E-08  7.7255E-09  5.6638E-03  2.7294E-04  3.2766E-09  2.9148E-05  1.0026E-10  3.4888E-04  3.4761E-04  3.6836E-09                                                                                                                                                                                                                                                                                                                                                                                                                                                                                                                                                                                                
     935.0000     125.0000   -5225.0000  5.30214E+02  238.143  0.00000E+00  1.00000E+00  1.00001  6.2507  1.4623E-08  2.4111E-09  5.6637E-03  2.7297E-04  1.0629E-09  2.9151E-05  1.0026E-10  3.4889E-04  3.4758E-04  1.1861E-09                                                                                                                                                                                                                                                                                                                                                                                                                                                                                                                                                                                                
    1185.0000     125.0000   -5225.0000  5.30197E+02  238.144  0.00000E+00  1.00000E+00  1.00001  6.2507  2.2355E-09  4.3986E-10  5.6640E-03  2.7298E-04  2.4192E-10  2.9152E-05  1.0026E-10  3.4890E-04  3.4757E-04  2.5973E-10                                                                                                                                                                                                                                                                                                                                                                                                                                                                                                                                                                                                
    1435.0000     125.0000   -5225.0000  5.30184E+02  238.146  0.00000E+00  1.00000E+00  1.00001  6.2507  3.1544E-10  1.3432E-10  5.6645E-03  2.7298E-04  1.1470E-10  2.9152E-05  1.0026E-10  3.4890E-04  3.4757E-04  1.1615E-10                                                                                                                                                                                                                                                                                                                                                                                                                                                                                                                                                                                                
     125.0000     125.0000   -4975.0000  5.09053E+02  227.234  0.00000E+00  1.00000E+00  1.00001  6.3907  1.2954E-07  2.0698E-08  3.1853E-03  2.7570E-04  8.6620E-09  3.0531E-05  1.0007E-10  3.4300E-04  3.4256E-04  9.7800E-09                                                                                                                                                                                                                                                                                                                                                                                                                                                                                                                                                                                                
     375.0000     125.0000   -4975.0000  5.09057E+02  227.229  0.00000E+00  1.00000E+00  1.00001  6.3913  8.4224E-07  1.3411E-07  3.1849E-03  2.7506E-04  5.5803E-08  3.0466E-05  1.0003E-10  3.4271E-04  3.4324E-04  6.3077E-08                                                                                                                                                                                                                                                                                                                                                                                                                                                                                                                                                                                                
     625.0000     125.0000   -4975.0000  5.09054E+02  227.225  0.00000E+00  1.00000E+00  1.00001  6.3958  6.5872E-06  1.0483E-06  3.1863E-03  2.6964E-04  4.3595E-07  2.9912E-05  9.9950E-11  3.3973E-04  3.4963E-04  4.9270E-07                                                                                                                                                                                                                                                                                                                                                                                                                                                                                                                                                                                                
     760.0000     125.0000   -4975.0000  5.09045E+02  227.224  0.00000E+00  1.00000E+00  1.00001  6.3959  6.6779E-06  1.0627E-06  3.1862E-03  2.6964E-04  4.4194E-07  2.9912E-05  9.9949E-11  3.3990E-04  3.4946E-04  4.9949E-07                                                                                                                                                                                                                                                                                                                                                                                                                                                                                                                                                                                                
     780.0000     125.0000   -4975.0000  5.09043E+02  227.224  0.00000E+00  1.00000E+00  1.00001  6.3957  6.4838E-06  1.0319E-06  3.1861E-03  2.6988E-04  4.2909E-07  2.9937E-05  9.9950E-11  3.4016E-04  3.4905E-04  4.8497E-07                                                                                                                                                                                                                                                                                                                                                                                                                                                                                                                                                                                                
     800.0000     125.0000   -4975.0000  5.09042E+02  227.229  0.00000E+00  1.00000E+00  1.00001  6.3925  2.4911E-06  3.9649E-07  3.1854E-03  2.7357E-04  1.6489E-07  3.0314E-05  9.9994E-11  3.4204E-04  3.4483E-04  1.8638E-07                                                                                                                                                                                                                                                                                                                                                                                                                                                                                                                                                                                                
     935.0000     125.0000   -4975.0000  5.09030E+02  227.231  0.00000E+00  1.00000E+00  1.00001  6.3913  9.0126E-07  1.4350E-07  3.1851E-03  2.7500E-04  5.9709E-08  3.0459E-05  1.0002E-10  3.4266E-04  3.4333E-04  6.7492E-08                                                                                                                                                                                                                                                                                                                                                                                                                                                                                                                                                                                                
    1185.0000     125.0000   -4975.0000  5.08999E+02  227.237  0.00000E+00  1.00000E+00  1.00001  6.3906  1.7063E-07  2.7237E-08  3.1859E-03  2.7566E-04  1.1381E-08  3.0527E-05  1.0007E-10  3.4298E-04  3.4260E-04  1.2853E-08                                                                                                                                                                                                                                                                                                                                                                                                                                                                                                                                                                                                
    1435.0000     125.0000   -4975.0000  5.08972E+02  227.245  0.00000E+00  1.00000E+00  1.00001  6.3904  2.5177E-08  4.0906E-09  3.1871E-03  2.7578E-04  1.7590E-09  3.0538E-05  1.0009E-10  3.4303E-04  3.4249E-04  1.9753E-09                                                                                                                                                                                                                                                                                                                                                                                                                                                                                                                                                                                                
     125.0000     125.0000   -4725.0000  4.87607E+02  215.797  0.00000E+00  1.00000E+00  1.00001  6.5498  3.4607E-06  5.5079E-07  1.7551E-03  2.7295E-04  2.2870E-07  3.1563E-05  9.6352E-11  3.3391E-04  3.3937E-04  2.5889E-07                                                                                                                                                                                                                                                                                                                                                                                                                                                                                                                                                                                                
     375.0000     125.0000   -4725.0000  4.87620E+02  215.398  0.00000E+00  1.00000E+00  1.00001  6.5660  1.7387E-05  2.7669E-06  1.7251E-03  2.6043E-04  1.1482E-06  3.0263E-05  9.5192E-11  3.2739E-04  3.5368E-04  1.3004E-06                                                                                                                                                                                                                                                                                                                                                                                                                                                                                                                                                                                                
     625.0000     125.0000   -4725.0000  4.87620E+02  214.725  0.00000E+00  1.00000E+00  1.00001  6.6555  1.0263E-04  1.6332E-05  1.7140E-03  1.8346E-04  6.7802E-06  2.1931E-05  9.3541E-11  2.7403E-04  5.0296E-04  7.6750E-06                                                                                                                                                                                                                                                                                                                                                                                                                                                                                                                                                                                                
     760.0000     125.0000   -4725.0000  4.87606E+02  214.713  0.00000E+00  1.00000E+00  1.00001  6.6552  1.0341E-04  1.6456E-05  1.7127E-03  1.8389E-04  6.8318E-06  2.1981E-05  9.3523E-11  2.7692E-04  4.9720E-04  7.7337E-06                                                                                                                                                                                                                                                                                                                                                                                                                                                                                                                                                                                                
     780.0000     125.0000   -4725.0000  4.87604E+02  214.700  0.00000E+00  1.00000E+00  1.00001  6.6512  1.0001E-04  1.5915E-05  1.7089E-03  1.8732E-04  6.6067E-06  2.2361E-05  9.3636E-11  2.8078E-04  4.8577E-04  7.4793E-06                                                                                                                                                                                                                                                                                                                                                                                                                                                                                                                                                                                                
     800.0000     125.0000   -4725.0000  4.87602E+02  215.186  0.00000E+00  1.00000E+00  1.00001  6.5902  4.2153E-05  6.7079E-06  1.7181E-03  2.3714E-04  2.7840E-06  2.7765E-05  9.4548E-11  3.1230E-04  3.8809E-04  3.1524E-06                                                                                                                                                                                                                                                                                                                                                                                                                                                                                                                                                                                                
     935.0000     125.0000   -4725.0000  4.87584E+02  215.441  0.00000E+00  1.00000E+00  1.00001  6.5664  1.8378E-05  2.9245E-06  1.7294E-03  2.5924E-04  1.2137E-06  3.0130E-05  9.5118E-11  3.2617E-04  3.5585E-04  1.3744E-06                                                                                                                                                                                                                                                                                                                                                                                                                                                                                                                                                                                                
    1185.0000     125.0000   -4725.0000  4.87526E+02  215.914  0.00000E+00  1.00000E+00  1.00001  6.5491  4.6512E-06  7.4023E-07  1.7662E-03  2.7176E-04  3.0739E-07  3.1421E-05  9.6548E-11  3.3321E-04  3.4098E-04  3.4792E-07                                                                                                                                                                                                                                                                                                                                                                                                                                                                                                                                                                                                