Title="TOUGHREACT V3.30-OMP: Mineral Abundances(Total or Changes) and/or Exchanged Species: Change in volume fraction"                                                                                                                                                                                                                                                                                                                                                                                                                                                                                                                                                                                                                                                                                                          
Variables= "X(m)"   "Y(m)"   "Z(m)"       "T(C)"   "Porosity"  "Poros_Chg" "Permx(m^2)"     "Kx/Kx0" "Permz(m^2)"     "Kz/Kz0" "quartz(alpha"     "dolomite"    "kaolinite"      "calcite"       "barite"    "anorthite"                                                                                                                                                                                                                                                                                                                                                                                                                                                                                                                                                                                                        
Zone T= "2.21821535E+03 yr" I=      9J=     10K=     23F=Point 
     125.0000     125.0000   -5425.0000  261.300  0.20205  2.05124E-03  1.00000E-16  1.0000E+00  1.00000E-16  1.0000E+00  0.0000E+00 -2.4165E-07 -2.6839E-04 -1.0006E-04  0.0000E+00  2.6968E-04                                                                                                                                                                                                                                                                                                                                                                                                                                                                                                                                                                                                                                
     375.0000     125.0000   -5425.0000  261.300  0.20205  2.05128E-03  1.00000E-16  1.0000E+00  1.00000E-16  1.0000E+00  0.0000E+00 -2.4165E-07 -2.6838E-04 -1.0006E-04  0.0000E+00  2.6968E-04                                                                                                                                                                                                                                                                                                                                                                                                                                                                                                                                                                                                                                
     625.0000     125.0000   -5425.0000  261.301  0.20205  2.05128E-03  1.00000E-16  1.0000E+00  1.00000E-16  1.0000E+00  0.0000E+00 -2.4165E-07 -2.6838E-04 -1.0006E-04  0.0000E+00  2.6968E-04                                                                                                                                                                                                                                                                                                                                                                                                                                                                                                                                                                                                                                
     760.0000     125.0000   -5425.0000  261.301  0.20205  2.05123E-03  1.00000E-16  1.0000E+00  1.00000E-16  1.0000E+00  0.0000E+00 -2.4165E-07 -2.6838E-04 -1.0006E-04  0.0000E+00  2.6968E-04                                                                                                                                                                                                                                                                                                                                                                                                                                                                                                                                                                                                                                
     780.0000     125.0000   -5425.0000  261.301  0.20205  2.05122E-03  1.00000E-16  1.0000E+00  1.00000E-16  1.0000E+00  0.0000E+00 -2.4165E-07 -2.6838E-04 -1.0006E-04  0.0000E+00  2.6968E-04                                                                                                                                                                                                                                                                                                                                                                                                                                                                                                                                                                                                                                
     800.0000     125.0000   -5425.0000  261.301  0.20205  2.05121E-03  1.00000E-16  1.0000E+00  1.00000E-16  1.0000E+00  0.0000E+00 -2.4165E-07 -2.6838E-04 -1.0006E-04  0.0000E+00  2.6968E-04                                                                                                                                                                                                                                                                                                                                                                                                                                                                                                                                                                                                                                
     935.0000     125.0000   -5425.0000  261.301  0.20205  2.05114E-03  1.00000E-16  1.0000E+00  1.00000E-16  1.0000E+00  0.0000E+00 -2.4165E-07 -2.6838E-04 -1.0006E-04  0.0000E+00  2.6968E-04                                                                                                                                                                                                                                                                                                                                                                                                                                                                                                                                                                                                                                
    1185.0000     125.0000   -5425.0000  261.301  0.20205  2.05098E-03  1.00000E-16  1.0000E+00  1.00000E-16  1.0000E+00  0.0000E+00 -2.4165E-07 -2.6838E-04 -1.0006E-04  0.0000E+00  2.6967E-04                                                                                                                                                                                                                                                                                                                                                                                                                                                                                                                                                                                                                                
    1435.0000     125.0000   -5425.0000  261.301  0.20205  2.05087E-03  1.00000E-16  1.0000E+00  1.00000E-16  1.0000E+00  0.0000E+00 -2.4164E-07 -2.6838E-04 -1.0006E-04  0.0000E+00  2.6967E-04                                                                                                                                                                                                                                                                                                                                                                                                                                                                                                                                                                                                                                
     125.0000     125.0000   -5225.0000  238.197  0.20208  2.08421E-03  1.00000E-16  1.0000E+00  1.00000E-16  1.0000E+00  0.0000E+00 -2.7359E-07 -7.9987E-05 -3.0116E-05  0.0000E+00  7.8602E-05                                                                                                                                                                                                                                                                                                                                                                                                                                                                                                                                                                                                                                
     375.0000     125.0000   -5225.0000  238.196  0.20208  2.08428E-03  1.00000E-16  1.0000E+00  1.00000E-16  1.0000E+00  0.0000E+00 -2.7359E-07 -8.0014E-05 -3.0126E-05  0.0000E+00  7.8629E-05                                                                                                                                                                                                                                                                                                                                                                                                                                                                                                                                                                                                                                
     625.0000     125.0000   -5225.0000  238.196  0.20208  2.08433E-03  1.00000E-16  1.0000E+00  1.00000E-16  1.0000E+00  0.0000E+00 -2.7360E-07 -8.0031E-05 -3.0133E-05  0.0000E+00  7.8647E-05                                                                                                                                                                                                                                                                                                                                                                                                                                                                                                                                                                                                                                
     760.0000     125.0000   -5225.0000  238.197  0.20208  2.08426E-03  1.00000E-16  1.0000E+00  1.00000E-16  1.0000E+00  0.0000E+00 -2.7360E-07 -8.0017E-05 -3.0127E-05  0.0000E+00  7.8632E-05                                                                                                                                                                                                                                                                                                                                                                                                                                                                                                                                                                                                                                
     780.0000     125.0000   -5225.0000  238.197  0.20208  2.08425E-03  1.00000E-16  1.0000E+00  1.00000E-16  1.0000E+00  0.0000E+00 -2.7360E-07 -8.0014E-05 -3.0126E-05  0.0000E+00  7.8629E-05                                                                                                                                                                                                                                                                                                                                                                                                                                                                                                                                                                                                                                
     800.0000     125.0000   -5225.0000  238.197  0.20208  2.08424E-03  1.00000E-16  1.0000E+00  1.00000E-16  1.0000E+00  0.0000E+00 -2.7359E-07 -8.0011E-05 -3.0125E-05  0.0000E+00  7.8626E-05                                                                                                                                                                                                                                                                                                                                                                                                                                                                                                                                                                                                                                
     935.0000     125.0000   -5225.0000  238.198  0.20208  2.08415E-03  1.00000E-16  1.0000E+00  1.00000E-16  1.0000E+00  0.0000E+00 -2.7359E-07 -7.9991E-05 -3.0117E-05  0.0000E+00  7.8605E-05                                                                                                                                                                                                                                                                                                                                                                                                                                                                                                                                                                                                                                
    1185.0000     125.0000   -5225.0000  238.202  0.20208  2.08396E-03  1.00000E-16  1.0000E+00  1.00000E-16  1.0000E+00  0.0000E+00 -2.7360E-07 -7.9928E-05 -3.0094E-05  0.0000E+00  7.8542E-05                                                                                                                                                                                                                                                                                                                                                                                                                                                                                                                                                                                                                                
    1435.0000     125.0000   -5225.0000  238.205  0.20208  2.08382E-03  1.00000E-16  1.0000E+00  1.00000E-16  1.0000E+00  0.0000E+00 -2.7361E-07 -7.9869E-05 -3.0072E-05  0.0000E+00  7.8482E-05                                                                                                                                                                                                                                                                                                                                                                                                                                                                                                                                                                                                                                
     125.0000     125.0000   -4975.0000  227.271  0.20228  2.27711E-03  1.00000E-16  1.0000E+00  1.00000E-16  1.0000E+00  0.0000E+00 -2.9447E-07 -4.5655E-05 -1.7384E-05  0.0000E+00  4.3733E-05                                                                                                                                                                                                                                                                                                                                                                                                                                                                                                                                                                                                                                
     375.0000     125.0000   -4975.0000  227.264  0.20228  2.27728E-03  1.00000E-16  1.0000E+00  1.00000E-16  1.0000E+00  0.0000E+00 -2.9447E-07 -4.5698E-05 -1.7400E-05  0.0000E+00  4.3777E-05                                                                                                                                                                                                                                                                                                                                                                                                                                                                                                                                                                                                                                
     625.0000     125.0000   -4975.0000  227.256  0.20228  2.27742E-03  1.00000E-16  1.0000E+00  1.00000E-16  1.0000E+00  0.0000E+00 -2.9403E-07 -4.5733E-05 -1.7411E-05  0.0000E+00  4.3818E-05                                                                                                                                                                                                                                                                                                                                                                                                                                                                                                                                                                                                                                
     760.0000     125.0000   -4975.0000  227.257  0.20228  2.27731E-03  1.00000E-16  1.0000E+00  1.00000E-16  1.0000E+00  0.0000E+00 -2.9404E-07 -4.5720E-05 -1.7407E-05  0.0000E+00  4.3805E-05                                                                                                                                                                                                                                                                                                                                                                                                                                                                                                                                                                                                                                
     780.0000     125.0000   -4975.0000  227.257  0.20228  2.27729E-03  1.00000E-16  1.0000E+00  1.00000E-16  1.0000E+00  0.0000E+00 -2.9409E-07 -4.5718E-05 -1.7406E-05  0.0000E+00  4.3802E-05                                                                                                                                                                                                                                                                                                                                                                                                                                                                                                                                                                                                                                
     800.0000     125.0000   -4975.0000  227.263  0.20228  2.27730E-03  1.00000E-16  1.0000E+00  1.00000E-16  1.0000E+00  0.0000E+00 -2.9446E-07 -4.5705E-05 -1.7402E-05  0.0000E+00  4.3784E-05                                                                                                                                                                                                                                                                                                                                                                                                                                                                                                                                                                                                                                
     935.0000     125.0000   -4975.0000  227.267  0.20228  2.27716E-03  1.00000E-16  1.0000E+00  1.00000E-16  1.0000E+00  0.0000E+00 -2.9448E-07 -4.5676E-05 -1.7392E-05  0.0000E+00  4.3755E-05                                                                                                                                                                                                                                                                                                                                                                                                                                                                                                                                                                                                                                
    1185.0000     125.0000   -4975.0000  227.280  0.20228  2.27686E-03  1.00000E-16  1.0000E+00  1.00000E-16  1.0000E+00  0.0000E+00 -2.9450E-07 -4.5592E-05 -1.7361E-05  0.0000E+00  4.3669E-05                                                                                                                                                                                                                                                                                                                                                                                                                                                                                                                                                                                                                                
    1435.0000     125.0000   -4975.0000  227.292  0.20228  2.27666E-03  1.00000E-16  1.0000E+00  1.00000E-16  1.0000E+00  0.0000E+00 -2.9452E-07 -4.5508E-05 -1.7330E-05  0.0000E+00  4.3584E-05                                                                                                                                                                                                                                                                                                                                                                                                                                                                                                                                                                                                                                
     125.0000     125.0000   -4725.0000  215.841  0.20245  2.45444E-03  1.00000E-16  1.0000E+00  1.00000E-16  1.0000E+00  0.0000E+00 -3.1145E-07 -2.5099E-05 -9.7640E-06  0.0000E+00  2.2851E-05                                                                                                                                                                                                                                                                                                                                                                                                                                                                                                                                                                                                                                
     375.0000     125.0000   -4725.0000  215.431  0.20245  2.45189E-03  1.00000E-16  1.0000E+00  1.00000E-16  1.0000E+00  0.0000E+00 -3.0531E-07 -2.4743E-05 -9.6124E-06  0.0000E+00  2.2502E-05                                                                                                                                                                                                                                                                                                                                                                                                                                                                                                                                                                                                                                
     625.0000     125.0000   -4725.0000  214.727  0.20245  2.44617E-03  1.00000E-16  1.0000E+00  1.00000E-16  1.0000E+00  0.0000E+00 -2.0940E-07 -2.2455E-05 -8.4399E-06  0.0000E+00  2.0488E-05                                                                                                                                                                                                                                                                                                                                                                                                                                                                                                                                                                                                                                
     760.0000     125.0000   -4725.0000  214.693  0.20245  2.44589E-03  1.00000E-16  1.0000E+00  1.00000E-16  1.0000E+00  0.0000E+00 -2.0972E-07 -2.2397E-05 -8.4118E-06  0.0000E+00  2.0404E-05                                                                                                                                                                                                                                                                                                                                                                                                                                                                                                                                                                                                                                
     780.0000     125.0000   -4725.0000  214.674  0.20245  2.44578E-03  1.00000E-16  1.0000E+00  1.00000E-16  1.0000E+00  0.0000E+00 -2.1184E-07 -2.2367E-05 -8.4015E-06  0.0000E+00  2.0348E-05                                                                                                                                                                                                                                                                                                                                                                                                                                                                                                                                                                                                                                
     800.0000     125.0000   -4725.0000  215.214  0.20245  2.45020E-03  1.00000E-16  1.0000E+00  1.00000E-16  1.0000E+00  0.0000E+00 -2.8115E-07 -2.4188E-05 -9.3180E-06  0.0000E+00  2.2013E-05                                                                                                                                                                                                                                                                                                                                                                                                                                                                                                                                                                                                                                
     935.0000     125.0000   -4725.0000  215.482  0.20245  2.45211E-03  1.00000E-16  1.0000E+00  1.00000E-16  1.0000E+00  0.0000E+00 -3.0473E-07 -2.4782E-05 -9.6225E-06  0.0000E+00  2.2549E-05                                                                                                                                                                                                                                                                                                                                                                                                                                                                                                                                                                                                                                
    1185.0000     125.0000   -4725.0000  215.965  0.20246  2.45502E-03  1.00000E-16  1.0000E+00  1.00000E-16  1.0000E+00  0.0000E+00 -3.1261E-07 -2.5153E-05 -9.7824E-06  0.0000E+00  2.2907E-05                                                                                                                                                                                                                                                                                                                                                                                                                                                                                                                                                                                                                                