Title="TOUGHREACT V3.30-OMP: Mineral Abundances(Total or Changes) and/or Exchanged Species: Change in volume fraction"                                                                                                                                                                                                                                                                                                                                                                                                                                                                                                                                                                                                                                                                                                          
Variables= "X(m)"   "Y(m)"   "Z(m)"       "T(C)"   "Porosity"  "Poros_Chg" "Permx(m^2)"     "Kx/Kx0" "Permz(m^2)"     "Kz/Kz0" "quartz(alpha"     "dolomite"    "kaolinite"      "calcite"       "barite"    "anorthite"                                                                                                                                                                                                                                                                                                                                                                                                                                                                                                                                                                                                        
Zone T= "9.50663722E+01 yr" I=      9J=     10K=     23F=Point 
     125.0000     125.0000   -5425.0000  247.335  0.20014  1.40767E-04  1.00000E-16  1.0000E+00  1.00000E-16  1.0000E+00  0.0000E+00 -2.5823E-07 -1.2985E-04 -4.8616E-05  0.0000E+00  1.2919E-04                                                                                                                                                                                                                                                                                                                                                                                                                                                                                                                                                                                                                                
     375.0000     125.0000   -5425.0000  247.335  0.20014  1.40996E-04  1.00000E-16  1.0000E+00  1.00000E-16  1.0000E+00  0.0000E+00 -2.5824E-07 -1.2985E-04 -4.8615E-05  0.0000E+00  1.2919E-04                                                                                                                                                                                                                                                                                                                                                                                                                                                                                                                                                                                                                                
     625.0000     125.0000   -5425.0000  247.336  0.20014  1.40753E-04  1.00000E-16  1.0000E+00  1.00000E-16  1.0000E+00  0.0000E+00 -2.5824E-07 -1.2984E-04 -4.8613E-05  0.0000E+00  1.2918E-04                                                                                                                                                                                                                                                                                                                                                                                                                                                                                                                                                                                                                                
     760.0000     125.0000   -5425.0000  247.336  0.20014  1.40097E-04  1.00000E-16  1.0000E+00  1.00000E-16  1.0000E+00  0.0000E+00 -2.5824E-07 -1.2984E-04 -4.8613E-05  0.0000E+00  1.2919E-04                                                                                                                                                                                                                                                                                                                                                                                                                                                                                                                                                                                                                                
     780.0000     125.0000   -5425.0000  247.336  0.20014  1.39994E-04  1.00000E-16  1.0000E+00  1.00000E-16  1.0000E+00  0.0000E+00 -2.5824E-07 -1.2984E-04 -4.8613E-05  0.0000E+00  1.2919E-04                                                                                                                                                                                                                                                                                                                                                                                                                                                                                                                                                                                                                                
     800.0000     125.0000   -5425.0000  247.336  0.20014  1.39887E-04  1.00000E-16  1.0000E+00  1.00000E-16  1.0000E+00  0.0000E+00 -2.5824E-07 -1.2984E-04 -4.8614E-05  0.0000E+00  1.2919E-04                                                                                                                                                                                                                                                                                                                                                                                                                                                                                                                                                                                                                                
     935.0000     125.0000   -5425.0000  247.335  0.20014  1.39129E-04  1.00000E-16  1.0000E+00  1.00000E-16  1.0000E+00  0.0000E+00 -2.5824E-07 -1.2984E-04 -4.8614E-05  0.0000E+00  1.2919E-04                                                                                                                                                                                                                                                                                                                                                                                                                                                                                                                                                                                                                                
    1185.0000     125.0000   -5425.0000  247.335  0.20014  1.37214E-04  1.00000E-16  1.0000E+00  1.00000E-16  1.0000E+00  0.0000E+00 -2.5824E-07 -1.2985E-04 -4.8615E-05  0.0000E+00  1.2919E-04                                                                                                                                                                                                                                                                                                                                                                                                                                                                                                                                                                                                                                
    1435.0000     125.0000   -5425.0000  247.334  0.20014  1.35815E-04  1.00000E-16  1.0000E+00  1.00000E-16  1.0000E+00  0.0000E+00 -2.5823E-07 -1.2985E-04 -4.8615E-05  0.0000E+00  1.2919E-04                                                                                                                                                                                                                                                                                                                                                                                                                                                                                                                                                                                                                                
     125.0000     125.0000   -5225.0000  238.016  0.20030  2.98109E-04  1.00000E-16  1.0000E+00  1.00000E-16  1.0000E+00  0.0000E+00 -2.7534E-07 -8.0553E-05 -3.0325E-05  0.0000E+00  7.9155E-05                                                                                                                                                                                                                                                                                                                                                                                                                                                                                                                                                                                                                                
     375.0000     125.0000   -5225.0000  238.017  0.20030  2.98638E-04  1.00000E-16  1.0000E+00  1.00000E-16  1.0000E+00  0.0000E+00 -2.7534E-07 -8.0553E-05 -3.0325E-05  0.0000E+00  7.9155E-05                                                                                                                                                                                                                                                                                                                                                                                                                                                                                                                                                                                                                                
     625.0000     125.0000   -5225.0000  238.018  0.20030  2.98611E-04  1.00000E-16  1.0000E+00  1.00000E-16  1.0000E+00  0.0000E+00 -2.7535E-07 -8.0548E-05 -3.0323E-05  0.0000E+00  7.9150E-05                                                                                                                                                                                                                                                                                                                                                                                                                                                                                                                                                                                                                                
     760.0000     125.0000   -5225.0000  238.017  0.20030  2.97888E-04  1.00000E-16  1.0000E+00  1.00000E-16  1.0000E+00  0.0000E+00 -2.7535E-07 -8.0550E-05 -3.0323E-05  0.0000E+00  7.9151E-05                                                                                                                                                                                                                                                                                                                                                                                                                                                                                                                                                                                                                                
     780.0000     125.0000   -5225.0000  238.017  0.20030  2.97773E-04  1.00000E-16  1.0000E+00  1.00000E-16  1.0000E+00  0.0000E+00 -2.7535E-07 -8.0550E-05 -3.0323E-05  0.0000E+00  7.9152E-05                                                                                                                                                                                                                                                                                                                                                                                                                                                                                                                                                                                                                                
     800.0000     125.0000   -5225.0000  238.017  0.20030  2.97652E-04  1.00000E-16  1.0000E+00  1.00000E-16  1.0000E+00  0.0000E+00 -2.7535E-07 -8.0550E-05 -3.0323E-05  0.0000E+00  7.9152E-05                                                                                                                                                                                                                                                                                                                                                                                                                                                                                                                                                                                                                                
     935.0000     125.0000   -5225.0000  238.017  0.20030  2.96786E-04  1.00000E-16  1.0000E+00  1.00000E-16  1.0000E+00  0.0000E+00 -2.7534E-07 -8.0552E-05 -3.0324E-05  0.0000E+00  7.9154E-05                                                                                                                                                                                                                                                                                                                                                                                                                                                                                                                                                                                                                                
    1185.0000     125.0000   -5225.0000  238.016  0.20029  2.94444E-04  1.00000E-16  1.0000E+00  1.00000E-16  1.0000E+00  0.0000E+00 -2.7534E-07 -8.0551E-05 -3.0324E-05  0.0000E+00  7.9152E-05                                                                                                                                                                                                                                                                                                                                                                                                                                                                                                                                                                                                                                
    1435.0000     125.0000   -5225.0000  238.016  0.20029  2.92688E-04  1.00000E-16  1.0000E+00  1.00000E-16  1.0000E+00  0.0000E+00 -2.7534E-07 -8.0548E-05 -3.0323E-05  0.0000E+00  7.9149E-05                                                                                                                                                                                                                                                                                                                                                                                                                                                                                                                                                                                                                                
     125.0000     125.0000   -4975.0000  227.154  0.20050  4.95128E-04  1.00000E-16  1.0000E+00  1.00000E-16  1.0000E+00  0.0000E+00 -2.9553E-07 -4.5365E-05 -1.7276E-05  0.0000E+00  4.3430E-05                                                                                                                                                                                                                                                                                                                                                                                                                                                                                                                                                                                                                                
     375.0000     125.0000   -4975.0000  227.154  0.20050  4.97063E-04  1.00000E-16  1.0000E+00  1.00000E-16  1.0000E+00  0.0000E+00 -2.9554E-07 -4.5374E-05 -1.7279E-05  0.0000E+00  4.3439E-05                                                                                                                                                                                                                                                                                                                                                                                                                                                                                                                                                                                                                                
     625.0000     125.0000   -4975.0000  227.154  0.20050  4.98018E-04  1.00000E-16  1.0000E+00  1.00000E-16  1.0000E+00  0.0000E+00 -2.9531E-07 -4.5369E-05 -1.7276E-05  0.0000E+00  4.3438E-05                                                                                                                                                                                                                                                                                                                                                                                                                                                                                                                                                                                                                                
     760.0000     125.0000   -4975.0000  227.153  0.20050  4.97035E-04  1.00000E-16  1.0000E+00  1.00000E-16  1.0000E+00  0.0000E+00 -2.9531E-07 -4.5371E-05 -1.7277E-05  0.0000E+00  4.3439E-05                                                                                                                                                                                                                                                                                                                                                                                                                                                                                                                                                                                                                                
     780.0000     125.0000   -4975.0000  227.153  0.20050  4.96872E-04  1.00000E-16  1.0000E+00  1.00000E-16  1.0000E+00  0.0000E+00 -2.9533E-07 -4.5372E-05 -1.7277E-05  0.0000E+00  4.3440E-05                                                                                                                                                                                                                                                                                                                                                                                                                                                                                                                                                                                                                                
     800.0000     125.0000   -4975.0000  227.154  0.20050  4.96705E-04  1.00000E-16  1.0000E+00  1.00000E-16  1.0000E+00  0.0000E+00 -2.9554E-07 -4.5373E-05 -1.7278E-05  0.0000E+00  4.3438E-05                                                                                                                                                                                                                                                                                                                                                                                                                                                                                                                                                                                                                                
     935.0000     125.0000   -4975.0000  227.153  0.20050  4.95396E-04  1.00000E-16  1.0000E+00  1.00000E-16  1.0000E+00  0.0000E+00 -2.9554E-07 -4.5374E-05 -1.7279E-05  0.0000E+00  4.3440E-05                                                                                                                                                                                                                                                                                                                                                                                                                                                                                                                                                                                                                                
    1185.0000     125.0000   -4975.0000  227.154  0.20049  4.91291E-04  1.00000E-16  1.0000E+00  1.00000E-16  1.0000E+00  0.0000E+00 -2.9554E-07 -4.5363E-05 -1.7275E-05  0.0000E+00  4.3427E-05                                                                                                                                                                                                                                                                                                                                                                                                                                                                                                                                                                                                                                
    1435.0000     125.0000   -4975.0000  227.155  0.20049  4.88093E-04  1.00000E-16  1.0000E+00  1.00000E-16  1.0000E+00  0.0000E+00 -2.9554E-07 -4.5354E-05 -1.7272E-05  0.0000E+00  4.3419E-05                                                                                                                                                                                                                                                                                                                                                                                                                                                                                                                                                                                                                                
     125.0000     125.0000   -4725.0000  216.336  0.20069  6.85761E-04  1.00000E-16  1.0000E+00  1.00000E-16  1.0000E+00  0.0000E+00 -3.1509E-07 -2.5184E-05 -9.7949E-06  0.0000E+00  2.2947E-05                                                                                                                                                                                                                                                                                                                                                                                                                                                                                                                                                                                                                                
     375.0000     125.0000   -4725.0000  216.276  0.20069  6.91501E-04  1.00000E-16  1.0000E+00  1.00000E-16  1.0000E+00  0.0000E+00 -3.0888E-07 -2.5212E-05 -9.7894E-06  0.0000E+00  2.3021E-05                                                                                                                                                                                                                                                                                                                                                                                                                                                                                                                                                                                                                                
     625.0000     125.0000   -4725.0000  215.807  0.20069  6.90733E-04  1.00000E-16  1.0000E+00  1.00000E-16  1.0000E+00  0.0000E+00 -2.2125E-07 -2.3116E-05 -8.6841E-06  0.0000E+00  2.1124E-05                                                                                                                                                                                                                                                                                                                                                                                                                                                                                                                                                                                                                                
     760.0000     125.0000   -4725.0000  215.809  0.20069  6.89347E-04  1.00000E-16  1.0000E+00  1.00000E-16  1.0000E+00  0.0000E+00 -2.2155E-07 -2.3083E-05 -8.6656E-06  0.0000E+00  2.1070E-05                                                                                                                                                                                                                                                                                                                                                                                                                                                                                                                                                                                                                                
     780.0000     125.0000   -4725.0000  215.802  0.20069  6.89072E-04  1.00000E-16  1.0000E+00  1.00000E-16  1.0000E+00  0.0000E+00 -2.2345E-07 -2.3095E-05 -8.6717E-06  0.0000E+00  2.1062E-05                                                                                                                                                                                                                                                                                                                                                                                                                                                                                                                                                                                                                                
     800.0000     125.0000   -4725.0000  216.104  0.20069  6.91555E-04  1.00000E-16  1.0000E+00  1.00000E-16  1.0000E+00  0.0000E+00 -2.8623E-07 -2.4646E-05 -9.4922E-06  0.0000E+00  2.2504E-05                                                                                                                                                                                                                                                                                                                                                                                                                                                                                                                                                                                                                                
     935.0000     125.0000   -4725.0000  216.261  0.20069  6.90543E-04  1.00000E-16  1.0000E+00  1.00000E-16  1.0000E+00  0.0000E+00 -3.0776E-07 -2.5208E-05 -9.7850E-06  0.0000E+00  2.3024E-05                                                                                                                                                                                                                                                                                                                                                                                                                                                                                                                                                                                                                                
    1185.0000     125.0000   -4725.0000  216.335  0.20068  6.82690E-04  1.00000E-16  1.0000E+00  1.00000E-16  1.0000E+00  0.0000E+00 -3.1493E-07 -2.5183E-05 -9.7944E-06  0.0000E+00  2.2948E-05                                                                                                                                                                                                                                                                                                                                                                                                                                                                                                                                                                                                                                