Title="TOUGHREACT V3.30-OMP: Mineral Abundances(Total or Changes) and/or Exchanged Species: Change in volume fraction"                                                                                                                                                                                                                                                                                                                                                                                                                                                                                                                                                                                                                                                                                                          
Variables= "X(m)"   "Y(m)"   "Z(m)"       "T(C)"   "Porosity"  "Poros_Chg" "Permx(m^2)"     "Kx/Kx0" "Permz(m^2)"     "Kz/Kz0" "quartz(alpha"     "dolomite"    "kaolinite"      "calcite"       "barite"    "anorthite"                                                                                                                                                                                                                                                                                                                                                                                                                                                                                                                                                                                                        
Zone T= "1.05523673E+03 yr" I=      9J=     10K=     23F=Point 
     125.0000     125.0000   -5425.0000  253.739  0.20198  1.98293E-03  1.00000E-16  1.0000E+00  1.00000E-16  1.0000E+00  0.0000E+00 -2.5043E-07 -1.8248E-04 -6.8158E-05  0.0000E+00  1.8256E-04                                                                                                                                                                                                                                                                                                                                                                                                                                                                                                                                                                                                                                
     375.0000     125.0000   -5425.0000  253.739  0.20198  1.98293E-03  1.00000E-16  1.0000E+00  1.00000E-16  1.0000E+00  0.0000E+00 -2.5043E-07 -1.8248E-04 -6.8157E-05  0.0000E+00  1.8256E-04                                                                                                                                                                                                                                                                                                                                                                                                                                                                                                                                                                                                                                
     625.0000     125.0000   -5425.0000  253.740  0.20198  1.98287E-03  1.00000E-16  1.0000E+00  1.00000E-16  1.0000E+00  0.0000E+00 -2.5044E-07 -1.8247E-04 -6.8155E-05  0.0000E+00  1.8256E-04                                                                                                                                                                                                                                                                                                                                                                                                                                                                                                                                                                                                                                
     760.0000     125.0000   -5425.0000  253.740  0.20198  1.98276E-03  1.00000E-16  1.0000E+00  1.00000E-16  1.0000E+00  0.0000E+00 -2.5043E-07 -1.8247E-04 -6.8155E-05  0.0000E+00  1.8256E-04                                                                                                                                                                                                                                                                                                                                                                                                                                                                                                                                                                                                                                
     780.0000     125.0000   -5425.0000  253.740  0.20198  1.98274E-03  1.00000E-16  1.0000E+00  1.00000E-16  1.0000E+00  0.0000E+00 -2.5043E-07 -1.8247E-04 -6.8155E-05  0.0000E+00  1.8256E-04                                                                                                                                                                                                                                                                                                                                                                                                                                                                                                                                                                                                                                
     800.0000     125.0000   -5425.0000  253.740  0.20198  1.98272E-03  1.00000E-16  1.0000E+00  1.00000E-16  1.0000E+00  0.0000E+00 -2.5043E-07 -1.8247E-04 -6.8156E-05  0.0000E+00  1.8256E-04                                                                                                                                                                                                                                                                                                                                                                                                                                                                                                                                                                                                                                
     935.0000     125.0000   -5425.0000  253.739  0.20198  1.98260E-03  1.00000E-16  1.0000E+00  1.00000E-16  1.0000E+00  0.0000E+00 -2.5043E-07 -1.8248E-04 -6.8156E-05  0.0000E+00  1.8256E-04                                                                                                                                                                                                                                                                                                                                                                                                                                                                                                                                                                                                                                
    1185.0000     125.0000   -5425.0000  253.739  0.20198  1.98232E-03  1.00000E-16  1.0000E+00  1.00000E-16  1.0000E+00  0.0000E+00 -2.5043E-07 -1.8247E-04 -6.8156E-05  0.0000E+00  1.8256E-04                                                                                                                                                                                                                                                                                                                                                                                                                                                                                                                                                                                                                                
    1435.0000     125.0000   -5425.0000  253.739  0.20198  1.98211E-03  1.00000E-16  1.0000E+00  1.00000E-16  1.0000E+00  0.0000E+00 -2.5043E-07 -1.8247E-04 -6.8154E-05  0.0000E+00  1.8255E-04                                                                                                                                                                                                                                                                                                                                                                                                                                                                                                                                                                                                                                
     125.0000     125.0000   -5225.0000  238.161  0.20209  2.08685E-03  1.00000E-16  1.0000E+00  1.00000E-16  1.0000E+00  0.0000E+00 -2.7429E-07 -8.1136E-05 -3.0542E-05  0.0000E+00  7.9755E-05                                                                                                                                                                                                                                                                                                                                                                                                                                                                                                                                                                                                                                
     375.0000     125.0000   -5225.0000  238.161  0.20209  2.08688E-03  1.00000E-16  1.0000E+00  1.00000E-16  1.0000E+00  0.0000E+00 -2.7429E-07 -8.1145E-05 -3.0545E-05  0.0000E+00  7.9764E-05                                                                                                                                                                                                                                                                                                                                                                                                                                                                                                                                                                                                                                
     625.0000     125.0000   -5225.0000  238.162  0.20209  2.08685E-03  1.00000E-16  1.0000E+00  1.00000E-16  1.0000E+00  0.0000E+00 -2.7430E-07 -8.1145E-05 -3.0545E-05  0.0000E+00  7.9764E-05                                                                                                                                                                                                                                                                                                                                                                                                                                                                                                                                                                                                                                
     760.0000     125.0000   -5225.0000  238.162  0.20209  2.08672E-03  1.00000E-16  1.0000E+00  1.00000E-16  1.0000E+00  0.0000E+00 -2.7430E-07 -8.1138E-05 -3.0542E-05  0.0000E+00  7.9757E-05                                                                                                                                                                                                                                                                                                                                                                                                                                                                                                                                                                                                                                
     780.0000     125.0000   -5225.0000  238.162  0.20209  2.08670E-03  1.00000E-16  1.0000E+00  1.00000E-16  1.0000E+00  0.0000E+00 -2.7430E-07 -8.1137E-05 -3.0542E-05  0.0000E+00  7.9756E-05                                                                                                                                                                                                                                                                                                                                                                                                                                                                                                                                                                                                                                
     800.0000     125.0000   -5225.0000  238.162  0.20209  2.08668E-03  1.00000E-16  1.0000E+00  1.00000E-16  1.0000E+00  0.0000E+00 -2.7429E-07 -8.1135E-05 -3.0541E-05  0.0000E+00  7.9754E-05                                                                                                                                                                                                                                                                                                                                                                                                                                                                                                                                                                                                                                
     935.0000     125.0000   -5225.0000  238.162  0.20209  2.08652E-03  1.00000E-16  1.0000E+00  1.00000E-16  1.0000E+00  0.0000E+00 -2.7429E-07 -8.1126E-05 -3.0538E-05  0.0000E+00  7.9745E-05                                                                                                                                                                                                                                                                                                                                                                                                                                                                                                                                                                                                                                
    1185.0000     125.0000   -5225.0000  238.165  0.20209  2.08617E-03  1.00000E-16  1.0000E+00  1.00000E-16  1.0000E+00  0.0000E+00 -2.7430E-07 -8.1091E-05 -3.0525E-05  0.0000E+00  7.9710E-05                                                                                                                                                                                                                                                                                                                                                                                                                                                                                                                                                                                                                                
    1435.0000     125.0000   -5225.0000  238.167  0.20209  2.08592E-03  1.00000E-16  1.0000E+00  1.00000E-16  1.0000E+00  0.0000E+00 -2.7430E-07 -8.1053E-05 -3.0511E-05  0.0000E+00  7.9672E-05                                                                                                                                                                                                                                                                                                                                                                                                                                                                                                                                                                                                                                
     125.0000     125.0000   -4975.0000  227.249  0.20228  2.27959E-03  1.00000E-16  1.0000E+00  1.00000E-16  1.0000E+00  0.0000E+00 -2.9478E-07 -4.5952E-05 -1.7494E-05  0.0000E+00  4.4028E-05                                                                                                                                                                                                                                                                                                                                                                                                                                                                                                                                                                                                                                
     375.0000     125.0000   -4975.0000  227.244  0.20228  2.27973E-03  1.00000E-16  1.0000E+00  1.00000E-16  1.0000E+00  0.0000E+00 -2.9478E-07 -4.5981E-05 -1.7505E-05  0.0000E+00  4.4058E-05                                                                                                                                                                                                                                                                                                                                                                                                                                                                                                                                                                                                                                
     625.0000     125.0000   -4975.0000  227.237  0.20228  2.27980E-03  1.00000E-16  1.0000E+00  1.00000E-16  1.0000E+00  0.0000E+00 -2.9433E-07 -4.5996E-05 -1.7509E-05  0.0000E+00  4.4080E-05                                                                                                                                                                                                                                                                                                                                                                                                                                                                                                                                                                                                                                
     760.0000     125.0000   -4975.0000  227.238  0.20228  2.27958E-03  1.00000E-16  1.0000E+00  1.00000E-16  1.0000E+00  0.0000E+00 -2.9434E-07 -4.5989E-05 -1.7506E-05  0.0000E+00  4.4073E-05                                                                                                                                                                                                                                                                                                                                                                                                                                                                                                                                                                                                                                
     780.0000     125.0000   -4975.0000  227.238  0.20228  2.27955E-03  1.00000E-16  1.0000E+00  1.00000E-16  1.0000E+00  0.0000E+00 -2.9439E-07 -4.5989E-05 -1.7506E-05  0.0000E+00  4.4071E-05                                                                                                                                                                                                                                                                                                                                                                                                                                                                                                                                                                                                                                
     800.0000     125.0000   -4975.0000  227.243  0.20228  2.27954E-03  1.00000E-16  1.0000E+00  1.00000E-16  1.0000E+00  0.0000E+00 -2.9477E-07 -4.5979E-05 -1.7504E-05  0.0000E+00  4.4057E-05                                                                                                                                                                                                                                                                                                                                                                                                                                                                                                                                                                                                                                
     935.0000     125.0000   -4975.0000  227.246  0.20228  2.27928E-03  1.00000E-16  1.0000E+00  1.00000E-16  1.0000E+00  0.0000E+00 -2.9479E-07 -4.5962E-05 -1.7498E-05  0.0000E+00  4.4039E-05                                                                                                                                                                                                                                                                                                                                                                                                                                                                                                                                                                                                                                
    1185.0000     125.0000   -4975.0000  227.257  0.20228  2.27869E-03  1.00000E-16  1.0000E+00  1.00000E-16  1.0000E+00  0.0000E+00 -2.9480E-07 -4.5898E-05 -1.7474E-05  0.0000E+00  4.3974E-05                                                                                                                                                                                                                                                                                                                                                                                                                                                                                                                                                                                                                                
    1435.0000     125.0000   -4975.0000  227.267  0.20228  2.27823E-03  1.00000E-16  1.0000E+00  1.00000E-16  1.0000E+00  0.0000E+00 -2.9482E-07 -4.5831E-05 -1.7449E-05  0.0000E+00  4.3906E-05                                                                                                                                                                                                                                                                                                                                                                                                                                                                                                                                                                                                                                
     125.0000     125.0000   -4725.0000  215.814  0.20246  2.45694E-03  1.00000E-16  1.0000E+00  1.00000E-16  1.0000E+00  0.0000E+00 -3.1166E-07 -2.5261E-05 -9.8243E-06  0.0000E+00  2.3012E-05                                                                                                                                                                                                                                                                                                                                                                                                                                                                                                                                                                                                                                
     375.0000     125.0000   -4725.0000  215.407  0.20245  2.45442E-03  1.00000E-16  1.0000E+00  1.00000E-16  1.0000E+00  0.0000E+00 -3.0550E-07 -2.4889E-05 -9.6664E-06  0.0000E+00  2.2647E-05                                                                                                                                                                                                                                                                                                                                                                                                                                                                                                                                                                                                                                
     625.0000     125.0000   -4725.0000  214.708  0.20245  2.44866E-03  1.00000E-16  1.0000E+00  1.00000E-16  1.0000E+00  0.0000E+00 -2.0961E-07 -2.2564E-05 -8.4808E-06  0.0000E+00  2.0597E-05                                                                                                                                                                                                                                                                                                                                                                                                                                                                                                                                                                                                                                
     760.0000     125.0000   -4725.0000  214.675  0.20245  2.44821E-03  1.00000E-16  1.0000E+00  1.00000E-16  1.0000E+00  0.0000E+00 -2.0991E-07 -2.2502E-05 -8.4509E-06  0.0000E+00  2.0508E-05                                                                                                                                                                                                                                                                                                                                                                                                                                                                                                                                                                                                                                
     780.0000     125.0000   -4725.0000  214.656  0.20245  2.44808E-03  1.00000E-16  1.0000E+00  1.00000E-16  1.0000E+00  0.0000E+00 -2.1207E-07 -2.2485E-05 -8.4453E-06  0.0000E+00  2.0464E-05                                                                                                                                                                                                                                                                                                                                                                                                                                                                                                                                                                                                                                
     800.0000     125.0000   -4725.0000  215.193  0.20245  2.45244E-03  1.00000E-16  1.0000E+00  1.00000E-16  1.0000E+00  0.0000E+00 -2.8149E-07 -2.4308E-05 -9.3625E-06  0.0000E+00  2.2130E-05                                                                                                                                                                                                                                                                                                                                                                                                                                                                                                                                                                                                                                
     935.0000     125.0000   -4725.0000  215.458  0.20245  2.45410E-03  1.00000E-16  1.0000E+00  1.00000E-16  1.0000E+00  0.0000E+00 -3.0493E-07 -2.4932E-05 -9.6780E-06  0.0000E+00  2.2698E-05                                                                                                                                                                                                                                                                                                                                                                                                                                                                                                                                                                                                                                
    1185.0000     125.0000   -4725.0000  215.937  0.20246  2.45641E-03  1.00000E-16  1.0000E+00  1.00000E-16  1.0000E+00  0.0000E+00 -3.1284E-07 -2.5324E-05 -9.8459E-06  0.0000E+00  2.3077E-05                                                                                                                                                                                                                                                                                                                                                                                                                                                                                                                                                                                                                                