Title="TOUGHREACT V3.30-OMP: Mineral Abundances(Total or Changes) and/or Exchanged Species: Change in volume fraction"                                                                                                                                                                                                                                                                                                                                                                                                                                                                                                                                                                                                                                                                                                          
Variables= "X(m)"   "Y(m)"   "Z(m)"       "T(C)"   "Porosity"  "Poros_Chg" "Permx(m^2)"     "Kx/Kx0" "Permz(m^2)"     "Kz/Kz0" "quartz(alpha"     "dolomite"    "kaolinite"      "calcite"       "barite"    "anorthite"                                                                                                                                                                                                                                                                                                                                                                                                                                                                                                                                                                                                        
Zone T= "1.58443954E-09 yr" I=      9J=     10K=     23F=Point 
     125.0000     125.0000   -5425.0000  246.737  0.20005  4.78702E-05  1.00000E-16  1.0000E+00  1.00000E-16  1.0000E+00  0.0000E+00 -2.5940E-07 -1.2519E-04 -4.6887E-05  0.0000E+00  1.2447E-04                                                                                                                                                                                                                                                                                                                                                                                                                                                                                                                                                                                                                                
     375.0000     125.0000   -5425.0000  246.737  0.20005  4.78702E-05  1.00000E-16  1.0000E+00  1.00000E-16  1.0000E+00  0.0000E+00 -2.5940E-07 -1.2519E-04 -4.6887E-05  0.0000E+00  1.2447E-04                                                                                                                                                                                                                                                                                                                                                                                                                                                                                                                                                                                                                                
     625.0000     125.0000   -5425.0000  246.737  0.20005  4.78702E-05  1.00000E-16  1.0000E+00  1.00000E-16  1.0000E+00  0.0000E+00 -2.5940E-07 -1.2519E-04 -4.6887E-05  0.0000E+00  1.2447E-04                                                                                                                                                                                                                                                                                                                                                                                                                                                                                                                                                                                                                                
     760.0000     125.0000   -5425.0000  246.737  0.20005  4.78702E-05  1.00000E-16  1.0000E+00  1.00000E-16  1.0000E+00  0.0000E+00 -2.5940E-07 -1.2519E-04 -4.6887E-05  0.0000E+00  1.2447E-04                                                                                                                                                                                                                                                                                                                                                                                                                                                                                                                                                                                                                                
     780.0000     125.0000   -5425.0000  246.737  0.20005  4.78702E-05  1.00000E-16  1.0000E+00  1.00000E-16  1.0000E+00  0.0000E+00 -2.5940E-07 -1.2519E-04 -4.6887E-05  0.0000E+00  1.2447E-04                                                                                                                                                                                                                                                                                                                                                                                                                                                                                                                                                                                                                                
     800.0000     125.0000   -5425.0000  246.737  0.20005  4.78702E-05  1.00000E-16  1.0000E+00  1.00000E-16  1.0000E+00  0.0000E+00 -2.5940E-07 -1.2519E-04 -4.6887E-05  0.0000E+00  1.2447E-04                                                                                                                                                                                                                                                                                                                                                                                                                                                                                                                                                                                                                                
     935.0000     125.0000   -5425.0000  246.737  0.20005  4.78702E-05  1.00000E-16  1.0000E+00  1.00000E-16  1.0000E+00  0.0000E+00 -2.5940E-07 -1.2519E-04 -4.6887E-05  0.0000E+00  1.2447E-04                                                                                                                                                                                                                                                                                                                                                                                                                                                                                                                                                                                                                                
    1185.0000     125.0000   -5425.0000  246.737  0.20005  4.78702E-05  1.00000E-16  1.0000E+00  1.00000E-16  1.0000E+00  0.0000E+00 -2.5940E-07 -1.2519E-04 -4.6887E-05  0.0000E+00  1.2447E-04                                                                                                                                                                                                                                                                                                                                                                                                                                                                                                                                                                                                                                
    1435.0000     125.0000   -5425.0000  246.737  0.20005  4.78702E-05  1.00000E-16  1.0000E+00  1.00000E-16  1.0000E+00  0.0000E+00 -2.5940E-07 -1.2519E-04 -4.6887E-05  0.0000E+00  1.2447E-04                                                                                                                                                                                                                                                                                                                                                                                                                                                                                                                                                                                                                                
     125.0000     125.0000   -5225.0000  238.038  0.20003  3.18963E-05  1.00000E-16  1.0000E+00  1.00000E-16  1.0000E+00  0.0000E+00 -2.7574E-07 -8.0262E-05 -3.0217E-05  0.0000E+00  7.8858E-05                                                                                                                                                                                                                                                                                                                                                                                                                                                                                                                                                                                                                                
     375.0000     125.0000   -5225.0000  238.038  0.20003  3.18963E-05  1.00000E-16  1.0000E+00  1.00000E-16  1.0000E+00  0.0000E+00 -2.7574E-07 -8.0262E-05 -3.0217E-05  0.0000E+00  7.8858E-05                                                                                                                                                                                                                                                                                                                                                                                                                                                                                                                                                                                                                                
     625.0000     125.0000   -5225.0000  238.038  0.20003  3.18963E-05  1.00000E-16  1.0000E+00  1.00000E-16  1.0000E+00  0.0000E+00 -2.7574E-07 -8.0262E-05 -3.0217E-05  0.0000E+00  7.8858E-05                                                                                                                                                                                                                                                                                                                                                                                                                                                                                                                                                                                                                                
     760.0000     125.0000   -5225.0000  238.038  0.20003  3.18963E-05  1.00000E-16  1.0000E+00  1.00000E-16  1.0000E+00  0.0000E+00 -2.7574E-07 -8.0262E-05 -3.0217E-05  0.0000E+00  7.8858E-05                                                                                                                                                                                                                                                                                                                                                                                                                                                                                                                                                                                                                                
     780.0000     125.0000   -5225.0000  238.038  0.20003  3.18963E-05  1.00000E-16  1.0000E+00  1.00000E-16  1.0000E+00  0.0000E+00 -2.7574E-07 -8.0262E-05 -3.0217E-05  0.0000E+00  7.8858E-05                                                                                                                                                                                                                                                                                                                                                                                                                                                                                                                                                                                                                                
     800.0000     125.0000   -5225.0000  238.038  0.20003  3.18963E-05  1.00000E-16  1.0000E+00  1.00000E-16  1.0000E+00  0.0000E+00 -2.7574E-07 -8.0262E-05 -3.0217E-05  0.0000E+00  7.8858E-05                                                                                                                                                                                                                                                                                                                                                                                                                                                                                                                                                                                                                                
     935.0000     125.0000   -5225.0000  238.038  0.20003  3.18963E-05  1.00000E-16  1.0000E+00  1.00000E-16  1.0000E+00  0.0000E+00 -2.7574E-07 -8.0262E-05 -3.0217E-05  0.0000E+00  7.8858E-05                                                                                                                                                                                                                                                                                                                                                                                                                                                                                                                                                                                                                                
    1185.0000     125.0000   -5225.0000  238.038  0.20003  3.18963E-05  1.00000E-16  1.0000E+00  1.00000E-16  1.0000E+00  0.0000E+00 -2.7574E-07 -8.0262E-05 -3.0217E-05  0.0000E+00  7.8858E-05                                                                                                                                                                                                                                                                                                                                                                                                                                                                                                                                                                                                                                
    1435.0000     125.0000   -5225.0000  238.038  0.20003  3.18963E-05  1.00000E-16  1.0000E+00  1.00000E-16  1.0000E+00  0.0000E+00 -2.7574E-07 -8.0262E-05 -3.0217E-05  0.0000E+00  7.8858E-05                                                                                                                                                                                                                                                                                                                                                                                                                                                                                                                                                                                                                                
     125.0000     125.0000   -4975.0000  227.163  0.20002  1.95176E-05  1.00000E-16  1.0000E+00  1.00000E-16  1.0000E+00  0.0000E+00 -2.9587E-07 -4.5395E-05 -1.7287E-05  0.0000E+00  4.3460E-05                                                                                                                                                                                                                                                                                                                                                                                                                                                                                                                                                                                                                                
     375.0000     125.0000   -4975.0000  227.163  0.20002  1.95176E-05  1.00000E-16  1.0000E+00  1.00000E-16  1.0000E+00  0.0000E+00 -2.9587E-07 -4.5395E-05 -1.7287E-05  0.0000E+00  4.3460E-05                                                                                                                                                                                                                                                                                                                                                                                                                                                                                                                                                                                                                                
     625.0000     125.0000   -4975.0000  227.163  0.20002  1.95176E-05  1.00000E-16  1.0000E+00  1.00000E-16  1.0000E+00  0.0000E+00 -2.9587E-07 -4.5395E-05 -1.7287E-05  0.0000E+00  4.3460E-05                                                                                                                                                                                                                                                                                                                                                                                                                                                                                                                                                                                                                                
     760.0000     125.0000   -4975.0000  227.163  0.20002  1.95176E-05  1.00000E-16  1.0000E+00  1.00000E-16  1.0000E+00  0.0000E+00 -2.9587E-07 -4.5395E-05 -1.7287E-05  0.0000E+00  4.3460E-05                                                                                                                                                                                                                                                                                                                                                                                                                                                                                                                                                                                                                                
     780.0000     125.0000   -4975.0000  227.163  0.20002  1.95176E-05  1.00000E-16  1.0000E+00  1.00000E-16  1.0000E+00  0.0000E+00 -2.9587E-07 -4.5395E-05 -1.7287E-05  0.0000E+00  4.3460E-05                                                                                                                                                                                                                                                                                                                                                                                                                                                                                                                                                                                                                                
     800.0000     125.0000   -4975.0000  227.163  0.20002  1.95176E-05  1.00000E-16  1.0000E+00  1.00000E-16  1.0000E+00  0.0000E+00 -2.9587E-07 -4.5395E-05 -1.7287E-05  0.0000E+00  4.3460E-05                                                                                                                                                                                                                                                                                                                                                                                                                                                                                                                                                                                                                                
     935.0000     125.0000   -4975.0000  227.163  0.20002  1.95176E-05  1.00000E-16  1.0000E+00  1.00000E-16  1.0000E+00  0.0000E+00 -2.9587E-07 -4.5395E-05 -1.7287E-05  0.0000E+00  4.3460E-05                                                                                                                                                                                                                                                                                                                                                                                                                                                                                                                                                                                                                                
    1185.0000     125.0000   -4975.0000  227.163  0.20002  1.95176E-05  1.00000E-16  1.0000E+00  1.00000E-16  1.0000E+00  0.0000E+00 -2.9587E-07 -4.5395E-05 -1.7287E-05  0.0000E+00  4.3460E-05                                                                                                                                                                                                                                                                                                                                                                                                                                                                                                                                                                                                                                
    1435.0000     125.0000   -4975.0000  227.163  0.20002  1.95176E-05  1.00000E-16  1.0000E+00  1.00000E-16  1.0000E+00  0.0000E+00 -2.9587E-07 -4.5395E-05 -1.7287E-05  0.0000E+00  4.3460E-05                                                                                                                                                                                                                                                                                                                                                                                                                                                                                                                                                                                                                                
     125.0000     125.0000   -4725.0000  216.287  0.20001  1.24169E-05  1.00000E-16  1.0000E+00  1.00000E-16  1.0000E+00  0.0000E+00 -3.1559E-07 -2.5368E-05 -9.8644E-06  0.0000E+00  2.3131E-05                                                                                                                                                                                                                                                                                                                                                                                                                                                                                                                                                                                                                                
     375.0000     125.0000   -4725.0000  216.287  0.20001  1.24169E-05  1.00000E-16  1.0000E+00  1.00000E-16  1.0000E+00  0.0000E+00 -3.1559E-07 -2.5368E-05 -9.8644E-06  0.0000E+00  2.3131E-05                                                                                                                                                                                                                                                                                                                                                                                                                                                                                                                                                                                                                                
     625.0000     125.0000   -4725.0000  216.287  0.20001  1.24169E-05  1.00000E-16  1.0000E+00  1.00000E-16  1.0000E+00  0.0000E+00 -3.1559E-07 -2.5368E-05 -9.8644E-06  0.0000E+00  2.3131E-05                                                                                                                                                                                                                                                                                                                                                                                                                                                                                                                                                                                                                                
     760.0000     125.0000   -4725.0000  216.287  0.20001  1.24169E-05  1.00000E-16  1.0000E+00  1.00000E-16  1.0000E+00  0.0000E+00 -3.1559E-07 -2.5368E-05 -9.8644E-06  0.0000E+00  2.3131E-05                                                                                                                                                                                                                                                                                                                                                                                                                                                                                                                                                                                                                                
     780.0000     125.0000   -4725.0000  216.287  0.20001  1.24169E-05  1.00000E-16  1.0000E+00  1.00000E-16  1.0000E+00  0.0000E+00 -3.1559E-07 -2.5368E-05 -9.8644E-06  0.0000E+00  2.3131E-05                                                                                                                                                                                                                                                                                                                                                                                                                                                                                                                                                                                                                                
     800.0000     125.0000   -4725.0000  216.287  0.20001  1.24169E-05  1.00000E-16  1.0000E+00  1.00000E-16  1.0000E+00  0.0000E+00 -3.1559E-07 -2.5368E-05 -9.8644E-06  0.0000E+00  2.3131E-05                                                                                                                                                                                                                                                                                                                                                                                                                                                                                                                                                                                                                                
     935.0000     125.0000   -4725.0000  216.287  0.20001  1.24169E-05  1.00000E-16  1.0000E+00  1.00000E-16  1.0000E+00  0.0000E+00 -3.1559E-07 -2.5368E-05 -9.8644E-06  0.0000E+00  2.3131E-05                                                                                                                                                                                                                                                                                                                                                                                                                                                                                                                                                                                                                                
    1185.0000     125.0000   -4725.0000  216.287  0.20001  1.24169E-05  1.00000E-16  1.0000E+00  1.00000E-16  1.0000E+00  0.0000E+00 -3.1559E-07 -2.5368E-05 -9.8644E-06  0.0000E+00  2.3131E-05                                                                                                                                                                                                                                                                                                                                                                                                                                                                                                                                                                                                                                