Title="TOUGHREACT V3.30-OMP: Mineral Abundances(Total or Changes) and/or Exchanged Species: Change in volume fraction"                                                                                                                                                                                                                                                                                                                                                                                                                                                                                                                                                                                                                                                                                                          
Variables= "X(m)"   "Y(m)"   "Z(m)"       "T(C)"   "Porosity"  "Poros_Chg" "Permx(m^2)"     "Kx/Kx0" "Permz(m^2)"     "Kz/Kz0" "quartz(alpha"     "dolomite"    "kaolinite"      "calcite"       "barite"    "anorthite"                                                                                                                                                                                                                                                                                                                                                                                                                                                                                                                                                                                                        
Zone T= "2.53510326E+03 yr" I=      9J=     10K=     23F=Point 
     125.0000     125.0000   -5425.0000  263.362  0.20207  2.07134E-03  1.00000E-16  1.0000E+00  1.00000E-16  1.0000E+00  0.0000E+00 -2.3934E-07 -2.9756E-04 -1.1090E-04  0.0000E+00  2.9927E-04                                                                                                                                                                                                                                                                                                                                                                                                                                                                                                                                                                                                                                
     375.0000     125.0000   -5425.0000  263.362  0.20207  2.07138E-03  1.00000E-16  1.0000E+00  1.00000E-16  1.0000E+00  0.0000E+00 -2.3934E-07 -2.9756E-04 -1.1090E-04  0.0000E+00  2.9927E-04                                                                                                                                                                                                                                                                                                                                                                                                                                                                                                                                                                                                                                
     625.0000     125.0000   -5425.0000  263.363  0.20207  2.07139E-03  1.00000E-16  1.0000E+00  1.00000E-16  1.0000E+00  0.0000E+00 -2.3934E-07 -2.9756E-04 -1.1090E-04  0.0000E+00  2.9927E-04                                                                                                                                                                                                                                                                                                                                                                                                                                                                                                                                                                                                                                
     760.0000     125.0000   -5425.0000  263.363  0.20207  2.07134E-03  1.00000E-16  1.0000E+00  1.00000E-16  1.0000E+00  0.0000E+00 -2.3934E-07 -2.9756E-04 -1.1090E-04  0.0000E+00  2.9927E-04                                                                                                                                                                                                                                                                                                                                                                                                                                                                                                                                                                                                                                
     780.0000     125.0000   -5425.0000  263.363  0.20207  2.07133E-03  1.00000E-16  1.0000E+00  1.00000E-16  1.0000E+00  0.0000E+00 -2.3934E-07 -2.9756E-04 -1.1090E-04  0.0000E+00  2.9927E-04                                                                                                                                                                                                                                                                                                                                                                                                                                                                                                                                                                                                                                
     800.0000     125.0000   -5425.0000  263.363  0.20207  2.07132E-03  1.00000E-16  1.0000E+00  1.00000E-16  1.0000E+00  0.0000E+00 -2.3934E-07 -2.9756E-04 -1.1090E-04  0.0000E+00  2.9926E-04                                                                                                                                                                                                                                                                                                                                                                                                                                                                                                                                                                                                                                
     935.0000     125.0000   -5425.0000  263.363  0.20207  2.07126E-03  1.00000E-16  1.0000E+00  1.00000E-16  1.0000E+00  0.0000E+00 -2.3934E-07 -2.9756E-04 -1.1090E-04  0.0000E+00  2.9926E-04                                                                                                                                                                                                                                                                                                                                                                                                                                                                                                                                                                                                                                
    1185.0000     125.0000   -5425.0000  263.362  0.20207  2.07110E-03  1.00000E-16  1.0000E+00  1.00000E-16  1.0000E+00  0.0000E+00 -2.3933E-07 -2.9756E-04 -1.1089E-04  0.0000E+00  2.9926E-04                                                                                                                                                                                                                                                                                                                                                                                                                                                                                                                                                                                                                                
    1435.0000     125.0000   -5425.0000  263.363  0.20207  2.07098E-03  1.00000E-16  1.0000E+00  1.00000E-16  1.0000E+00  0.0000E+00 -2.3933E-07 -2.9755E-04 -1.1089E-04  0.0000E+00  2.9926E-04                                                                                                                                                                                                                                                                                                                                                                                                                                                                                                                                                                                                                                
     125.0000     125.0000   -5225.0000  238.210  0.20208  2.08294E-03  1.00000E-16  1.0000E+00  1.00000E-16  1.0000E+00  0.0000E+00 -2.7341E-07 -7.9574E-05 -2.9963E-05  0.0000E+00  7.8186E-05                                                                                                                                                                                                                                                                                                                                                                                                                                                                                                                                                                                                                                
     375.0000     125.0000   -5225.0000  238.208  0.20208  2.08301E-03  1.00000E-16  1.0000E+00  1.00000E-16  1.0000E+00  0.0000E+00 -2.7341E-07 -7.9607E-05 -2.9975E-05  0.0000E+00  7.8219E-05                                                                                                                                                                                                                                                                                                                                                                                                                                                                                                                                                                                                                                
     625.0000     125.0000   -5225.0000  238.208  0.20208  2.08305E-03  1.00000E-16  1.0000E+00  1.00000E-16  1.0000E+00  0.0000E+00 -2.7342E-07 -7.9632E-05 -2.9984E-05  0.0000E+00  7.8245E-05                                                                                                                                                                                                                                                                                                                                                                                                                                                                                                                                                                                                                                
     760.0000     125.0000   -5225.0000  238.209  0.20208  2.08299E-03  1.00000E-16  1.0000E+00  1.00000E-16  1.0000E+00  0.0000E+00 -2.7342E-07 -7.9615E-05 -2.9978E-05  0.0000E+00  7.8227E-05                                                                                                                                                                                                                                                                                                                                                                                                                                                                                                                                                                                                                                
     780.0000     125.0000   -5225.0000  238.209  0.20208  2.08298E-03  1.00000E-16  1.0000E+00  1.00000E-16  1.0000E+00  0.0000E+00 -2.7342E-07 -7.9612E-05 -2.9977E-05  0.0000E+00  7.8224E-05                                                                                                                                                                                                                                                                                                                                                                                                                                                                                                                                                                                                                                
     800.0000     125.0000   -5225.0000  238.209  0.20208  2.08297E-03  1.00000E-16  1.0000E+00  1.00000E-16  1.0000E+00  0.0000E+00 -2.7342E-07 -7.9608E-05 -2.9975E-05  0.0000E+00  7.8220E-05                                                                                                                                                                                                                                                                                                                                                                                                                                                                                                                                                                                                                                
     935.0000     125.0000   -5225.0000  238.210  0.20208  2.08288E-03  1.00000E-16  1.0000E+00  1.00000E-16  1.0000E+00  0.0000E+00 -2.7342E-07 -7.9583E-05 -2.9966E-05  0.0000E+00  7.8195E-05                                                                                                                                                                                                                                                                                                                                                                                                                                                                                                                                                                                                                                
    1185.0000     125.0000   -5225.0000  238.214  0.20208  2.08269E-03  1.00000E-16  1.0000E+00  1.00000E-16  1.0000E+00  0.0000E+00 -2.7343E-07 -7.9512E-05 -2.9940E-05  0.0000E+00  7.8123E-05                                                                                                                                                                                                                                                                                                                                                                                                                                                                                                                                                                                                                                
    1435.0000     125.0000   -5225.0000  238.218  0.20208  2.08255E-03  1.00000E-16  1.0000E+00  1.00000E-16  1.0000E+00  0.0000E+00 -2.7344E-07 -7.9446E-05 -2.9915E-05  0.0000E+00  7.8056E-05                                                                                                                                                                                                                                                                                                                                                                                                                                                                                                                                                                                                                                
     125.0000     125.0000   -4975.0000  227.277  0.20228  2.27592E-03  1.00000E-16  1.0000E+00  1.00000E-16  1.0000E+00  0.0000E+00 -2.9439E-07 -4.5573E-05 -1.7354E-05  0.0000E+00  4.3651E-05                                                                                                                                                                                                                                                                                                                                                                                                                                                                                                                                                                                                                                
     375.0000     125.0000   -4975.0000  227.270  0.20228  2.27608E-03  1.00000E-16  1.0000E+00  1.00000E-16  1.0000E+00  0.0000E+00 -2.9439E-07 -4.5620E-05 -1.7371E-05  0.0000E+00  4.3699E-05                                                                                                                                                                                                                                                                                                                                                                                                                                                                                                                                                                                                                                
     625.0000     125.0000   -4975.0000  227.261  0.20228  2.27623E-03  1.00000E-16  1.0000E+00  1.00000E-16  1.0000E+00  0.0000E+00 -2.9394E-07 -4.5660E-05 -1.7384E-05  0.0000E+00  4.3746E-05                                                                                                                                                                                                                                                                                                                                                                                                                                                                                                                                                                                                                                
     760.0000     125.0000   -4975.0000  227.263  0.20228  2.27612E-03  1.00000E-16  1.0000E+00  1.00000E-16  1.0000E+00  0.0000E+00 -2.9396E-07 -4.5645E-05 -1.7379E-05  0.0000E+00  4.3731E-05                                                                                                                                                                                                                                                                                                                                                                                                                                                                                                                                                                                                                                
     780.0000     125.0000   -4975.0000  227.263  0.20228  2.27610E-03  1.00000E-16  1.0000E+00  1.00000E-16  1.0000E+00  0.0000E+00 -2.9401E-07 -4.5643E-05 -1.7378E-05  0.0000E+00  4.3728E-05                                                                                                                                                                                                                                                                                                                                                                                                                                                                                                                                                                                                                                
     800.0000     125.0000   -4975.0000  227.269  0.20228  2.27612E-03  1.00000E-16  1.0000E+00  1.00000E-16  1.0000E+00  0.0000E+00 -2.9438E-07 -4.5629E-05 -1.7374E-05  0.0000E+00  4.3708E-05                                                                                                                                                                                                                                                                                                                                                                                                                                                                                                                                                                                                                                
     935.0000     125.0000   -4975.0000  227.273  0.20228  2.27597E-03  1.00000E-16  1.0000E+00  1.00000E-16  1.0000E+00  0.0000E+00 -2.9440E-07 -4.5598E-05 -1.7363E-05  0.0000E+00  4.3676E-05                                                                                                                                                                                                                                                                                                                                                                                                                                                                                                                                                                                                                                
    1185.0000     125.0000   -4975.0000  227.286  0.20228  2.27568E-03  1.00000E-16  1.0000E+00  1.00000E-16  1.0000E+00  0.0000E+00 -2.9441E-07 -4.5509E-05 -1.7330E-05  0.0000E+00  4.3586E-05                                                                                                                                                                                                                                                                                                                                                                                                                                                                                                                                                                                                                                
    1435.0000     125.0000   -4975.0000  227.299  0.20228  2.27549E-03  1.00000E-16  1.0000E+00  1.00000E-16  1.0000E+00  0.0000E+00 -2.9444E-07 -4.5422E-05 -1.7298E-05  0.0000E+00  4.3498E-05                                                                                                                                                                                                                                                                                                                                                                                                                                                                                                                                                                                                                                
     125.0000     125.0000   -4725.0000  215.848  0.20245  2.45326E-03  1.00000E-16  1.0000E+00  1.00000E-16  1.0000E+00  0.0000E+00 -3.1139E-07 -2.5054E-05 -9.7472E-06  0.0000E+00  2.2805E-05                                                                                                                                                                                                                                                                                                                                                                                                                                                                                                                                                                                                                                
     375.0000     125.0000   -4725.0000  215.438  0.20245  2.45072E-03  1.00000E-16  1.0000E+00  1.00000E-16  1.0000E+00  0.0000E+00 -3.0526E-07 -2.4702E-05 -9.5972E-06  0.0000E+00  2.2462E-05                                                                                                                                                                                                                                                                                                                                                                                                                                                                                                                                                                                                                                
     625.0000     125.0000   -4725.0000  214.732  0.20244  2.44499E-03  1.00000E-16  1.0000E+00  1.00000E-16  1.0000E+00  0.0000E+00 -2.0934E-07 -2.2423E-05 -8.4283E-06  0.0000E+00  2.0457E-05                                                                                                                                                                                                                                                                                                                                                                                                                                                                                                                                                                                                                                
     760.0000     125.0000   -4725.0000  214.698  0.20244  2.44472E-03  1.00000E-16  1.0000E+00  1.00000E-16  1.0000E+00  0.0000E+00 -2.0966E-07 -2.2367E-05 -8.4007E-06  0.0000E+00  2.0374E-05                                                                                                                                                                                                                                                                                                                                                                                                                                                                                                                                                                                                                                
     780.0000     125.0000   -4725.0000  214.679  0.20244  2.44460E-03  1.00000E-16  1.0000E+00  1.00000E-16  1.0000E+00  0.0000E+00 -2.1177E-07 -2.2334E-05 -8.3891E-06  0.0000E+00  2.0315E-05                                                                                                                                                                                                                                                                                                                                                                                                                                                                                                                                                                                                                                
     800.0000     125.0000   -4725.0000  215.220  0.20245  2.44903E-03  1.00000E-16  1.0000E+00  1.00000E-16  1.0000E+00  0.0000E+00 -2.8107E-07 -2.4155E-05 -9.3053E-06  0.0000E+00  2.1980E-05                                                                                                                                                                                                                                                                                                                                                                                                                                                                                                                                                                                                                                
     935.0000     125.0000   -4725.0000  215.489  0.20245  2.45095E-03  1.00000E-16  1.0000E+00  1.00000E-16  1.0000E+00  0.0000E+00 -3.0468E-07 -2.4741E-05 -9.6073E-06  0.0000E+00  2.2509E-05                                                                                                                                                                                                                                                                                                                                                                                                                                                                                                                                                                                                                                
    1185.0000     125.0000   -4725.0000  215.973  0.20245  2.45387E-03  1.00000E-16  1.0000E+00  1.00000E-16  1.0000E+00  0.0000E+00 -3.1255E-07 -2.5107E-05 -9.7655E-06  0.0000E+00  2.2862E-05                                                                                                                                                                                                                                                                                                                                                                                                                                                                                                                                                                                                                                