Title="TOUGHREACT V3.30-OMP: Mineral Abundances(Total or Changes) and/or Exchanged Species: Change in volume fraction"                                                                                                                                                                                                                                                                                                                                                                                                                                                                                                                                                                                                                                                                                                          
Variables= "X(m)"   "Y(m)"   "Z(m)"       "T(C)"   "Porosity"  "Poros_Chg" "Permx(m^2)"     "Kx/Kx0" "Permz(m^2)"     "Kz/Kz0" "quartz(alpha"     "dolomite"    "kaolinite"      "calcite"       "barite"    "anorthite"                                                                                                                                                                                                                                                                                                                                                                                                                                                                                                                                                                                                        
Zone T= "1.37212464E+03 yr" I=      9J=     10K=     23F=Point 
     125.0000     125.0000   -5425.0000  255.798  0.20200  2.00186E-03  1.00000E-16  1.0000E+00  1.00000E-16  1.0000E+00  0.0000E+00 -2.4800E-07 -2.0295E-04 -7.5759E-05  0.0000E+00  2.0332E-04                                                                                                                                                                                                                                                                                                                                                                                                                                                                                                                                                                                                                                
     375.0000     125.0000   -5425.0000  255.799  0.20200  2.00189E-03  1.00000E-16  1.0000E+00  1.00000E-16  1.0000E+00  0.0000E+00 -2.4800E-07 -2.0295E-04 -7.5758E-05  0.0000E+00  2.0332E-04                                                                                                                                                                                                                                                                                                                                                                                                                                                                                                                                                                                                                                
     625.0000     125.0000   -5425.0000  255.799  0.20200  2.00186E-03  1.00000E-16  1.0000E+00  1.00000E-16  1.0000E+00  0.0000E+00 -2.4800E-07 -2.0294E-04 -7.5756E-05  0.0000E+00  2.0331E-04                                                                                                                                                                                                                                                                                                                                                                                                                                                                                                                                                                                                                                
     760.0000     125.0000   -5425.0000  255.799  0.20200  2.00179E-03  1.00000E-16  1.0000E+00  1.00000E-16  1.0000E+00  0.0000E+00 -2.4800E-07 -2.0294E-04 -7.5757E-05  0.0000E+00  2.0331E-04                                                                                                                                                                                                                                                                                                                                                                                                                                                                                                                                                                                                                                
     780.0000     125.0000   -5425.0000  255.799  0.20200  2.00178E-03  1.00000E-16  1.0000E+00  1.00000E-16  1.0000E+00  0.0000E+00 -2.4800E-07 -2.0294E-04 -7.5757E-05  0.0000E+00  2.0331E-04                                                                                                                                                                                                                                                                                                                                                                                                                                                                                                                                                                                                                                
     800.0000     125.0000   -5425.0000  255.799  0.20200  2.00176E-03  1.00000E-16  1.0000E+00  1.00000E-16  1.0000E+00  0.0000E+00 -2.4800E-07 -2.0294E-04 -7.5757E-05  0.0000E+00  2.0331E-04                                                                                                                                                                                                                                                                                                                                                                                                                                                                                                                                                                                                                                
     935.0000     125.0000   -5425.0000  255.799  0.20200  2.00167E-03  1.00000E-16  1.0000E+00  1.00000E-16  1.0000E+00  0.0000E+00 -2.4800E-07 -2.0294E-04 -7.5757E-05  0.0000E+00  2.0332E-04                                                                                                                                                                                                                                                                                                                                                                                                                                                                                                                                                                                                                                
    1185.0000     125.0000   -5425.0000  255.799  0.20200  2.00147E-03  1.00000E-16  1.0000E+00  1.00000E-16  1.0000E+00  0.0000E+00 -2.4800E-07 -2.0294E-04 -7.5757E-05  0.0000E+00  2.0331E-04                                                                                                                                                                                                                                                                                                                                                                                                                                                                                                                                                                                                                                
    1435.0000     125.0000   -5425.0000  255.799  0.20200  2.00132E-03  1.00000E-16  1.0000E+00  1.00000E-16  1.0000E+00  0.0000E+00 -2.4800E-07 -2.0294E-04 -7.5755E-05  0.0000E+00  2.0331E-04                                                                                                                                                                                                                                                                                                                                                                                                                                                                                                                                                                                                                                
     125.0000     125.0000   -5225.0000  238.169  0.20209  2.08749E-03  1.00000E-16  1.0000E+00  1.00000E-16  1.0000E+00  0.0000E+00 -2.7409E-07 -8.0874E-05 -3.0445E-05  0.0000E+00  7.9493E-05                                                                                                                                                                                                                                                                                                                                                                                                                                                                                                                                                                                                                                
     375.0000     125.0000   -5225.0000  238.169  0.20209  2.08754E-03  1.00000E-16  1.0000E+00  1.00000E-16  1.0000E+00  0.0000E+00 -2.7409E-07 -8.0886E-05 -3.0449E-05  0.0000E+00  7.9506E-05                                                                                                                                                                                                                                                                                                                                                                                                                                                                                                                                                                                                                                
     625.0000     125.0000   -5225.0000  238.170  0.20209  2.08756E-03  1.00000E-16  1.0000E+00  1.00000E-16  1.0000E+00  0.0000E+00 -2.7410E-07 -8.0890E-05 -3.0451E-05  0.0000E+00  7.9509E-05                                                                                                                                                                                                                                                                                                                                                                                                                                                                                                                                                                                                                                
     760.0000     125.0000   -5225.0000  238.170  0.20209  2.08746E-03  1.00000E-16  1.0000E+00  1.00000E-16  1.0000E+00  0.0000E+00 -2.7410E-07 -8.0881E-05 -3.0447E-05  0.0000E+00  7.9500E-05                                                                                                                                                                                                                                                                                                                                                                                                                                                                                                                                                                                                                                
     780.0000     125.0000   -5225.0000  238.170  0.20209  2.08745E-03  1.00000E-16  1.0000E+00  1.00000E-16  1.0000E+00  0.0000E+00 -2.7410E-07 -8.0879E-05 -3.0447E-05  0.0000E+00  7.9498E-05                                                                                                                                                                                                                                                                                                                                                                                                                                                                                                                                                                                                                                
     800.0000     125.0000   -5225.0000  238.170  0.20209  2.08743E-03  1.00000E-16  1.0000E+00  1.00000E-16  1.0000E+00  0.0000E+00 -2.7410E-07 -8.0877E-05 -3.0446E-05  0.0000E+00  7.9496E-05                                                                                                                                                                                                                                                                                                                                                                                                                                                                                                                                                                                                                                
     935.0000     125.0000   -5225.0000  238.171  0.20209  2.08732E-03  1.00000E-16  1.0000E+00  1.00000E-16  1.0000E+00  0.0000E+00 -2.7409E-07 -8.0865E-05 -3.0441E-05  0.0000E+00  7.9484E-05                                                                                                                                                                                                                                                                                                                                                                                                                                                                                                                                                                                                                                
    1185.0000     125.0000   -5225.0000  238.173  0.20209  2.08707E-03  1.00000E-16  1.0000E+00  1.00000E-16  1.0000E+00  0.0000E+00 -2.7410E-07 -8.0823E-05 -3.0426E-05  0.0000E+00  7.9441E-05                                                                                                                                                                                                                                                                                                                                                                                                                                                                                                                                                                                                                                
    1435.0000     125.0000   -5225.0000  238.177  0.20209  2.08689E-03  1.00000E-16  1.0000E+00  1.00000E-16  1.0000E+00  0.0000E+00 -2.7411E-07 -8.0779E-05 -3.0410E-05  0.0000E+00  7.9397E-05                                                                                                                                                                                                                                                                                                                                                                                                                                                                                                                                                                                                                                
     125.0000     125.0000   -4975.0000  227.255  0.20228  2.28023E-03  1.00000E-16  1.0000E+00  1.00000E-16  1.0000E+00  0.0000E+00 -2.9470E-07 -4.5873E-05 -1.7464E-05  0.0000E+00  4.3950E-05                                                                                                                                                                                                                                                                                                                                                                                                                                                                                                                                                                                                                                
     375.0000     125.0000   -4975.0000  227.249  0.20228  2.28038E-03  1.00000E-16  1.0000E+00  1.00000E-16  1.0000E+00  0.0000E+00 -2.9470E-07 -4.5906E-05 -1.7477E-05  0.0000E+00  4.3983E-05                                                                                                                                                                                                                                                                                                                                                                                                                                                                                                                                                                                                                                
     625.0000     125.0000   -4975.0000  227.243  0.20228  2.28050E-03  1.00000E-16  1.0000E+00  1.00000E-16  1.0000E+00  0.0000E+00 -2.9424E-07 -4.5926E-05 -1.7483E-05  0.0000E+00  4.4011E-05                                                                                                                                                                                                                                                                                                                                                                                                                                                                                                                                                                                                                                
     760.0000     125.0000   -4975.0000  227.243  0.20228  2.28035E-03  1.00000E-16  1.0000E+00  1.00000E-16  1.0000E+00  0.0000E+00 -2.9426E-07 -4.5917E-05 -1.7479E-05  0.0000E+00  4.4001E-05                                                                                                                                                                                                                                                                                                                                                                                                                                                                                                                                                                                                                                
     780.0000     125.0000   -4975.0000  227.243  0.20228  2.28032E-03  1.00000E-16  1.0000E+00  1.00000E-16  1.0000E+00  0.0000E+00 -2.9431E-07 -4.5916E-05 -1.7479E-05  0.0000E+00  4.3999E-05                                                                                                                                                                                                                                                                                                                                                                                                                                                                                                                                                                                                                                
     800.0000     125.0000   -4975.0000  227.249  0.20228  2.28033E-03  1.00000E-16  1.0000E+00  1.00000E-16  1.0000E+00  0.0000E+00 -2.9469E-07 -4.5905E-05 -1.7476E-05  0.0000E+00  4.3983E-05                                                                                                                                                                                                                                                                                                                                                                                                                                                                                                                                                                                                                                
     935.0000     125.0000   -4975.0000  227.252  0.20228  2.28013E-03  1.00000E-16  1.0000E+00  1.00000E-16  1.0000E+00  0.0000E+00 -2.9470E-07 -4.5885E-05 -1.7469E-05  0.0000E+00  4.3962E-05                                                                                                                                                                                                                                                                                                                                                                                                                                                                                                                                                                                                                                
    1185.0000     125.0000   -4975.0000  227.263  0.20228  2.27973E-03  1.00000E-16  1.0000E+00  1.00000E-16  1.0000E+00  0.0000E+00 -2.9472E-07 -4.5814E-05 -1.7443E-05  0.0000E+00  4.3890E-05                                                                                                                                                                                                                                                                                                                                                                                                                                                                                                                                                                                                                                
    1435.0000     125.0000   -4975.0000  227.275  0.20228  2.27943E-03  1.00000E-16  1.0000E+00  1.00000E-16  1.0000E+00  0.0000E+00 -2.9474E-07 -4.5740E-05 -1.7415E-05  0.0000E+00  4.3816E-05                                                                                                                                                                                                                                                                                                                                                                                                                                                                                                                                                                                                                                
     125.0000     125.0000   -4725.0000  215.821  0.20246  2.45754E-03  1.00000E-16  1.0000E+00  1.00000E-16  1.0000E+00  0.0000E+00 -3.1160E-07 -2.5218E-05 -9.8084E-06  0.0000E+00  2.2969E-05                                                                                                                                                                                                                                                                                                                                                                                                                                                                                                                                                                                                                                
     375.0000     125.0000   -4725.0000  215.413  0.20245  2.45500E-03  1.00000E-16  1.0000E+00  1.00000E-16  1.0000E+00  0.0000E+00 -3.0545E-07 -2.4851E-05 -9.6522E-06  0.0000E+00  2.2609E-05                                                                                                                                                                                                                                                                                                                                                                                                                                                                                                                                                                                                                                
     625.0000     125.0000   -4725.0000  214.713  0.20245  2.44926E-03  1.00000E-16  1.0000E+00  1.00000E-16  1.0000E+00  0.0000E+00 -2.0955E-07 -2.2536E-05 -8.4703E-06  0.0000E+00  2.0569E-05                                                                                                                                                                                                                                                                                                                                                                                                                                                                                                                                                                                                                                
     760.0000     125.0000   -4725.0000  214.680  0.20245  2.44892E-03  1.00000E-16  1.0000E+00  1.00000E-16  1.0000E+00  0.0000E+00 -2.0986E-07 -2.2475E-05 -8.4407E-06  0.0000E+00  2.0481E-05                                                                                                                                                                                                                                                                                                                                                                                                                                                                                                                                                                                                                                
     780.0000     125.0000   -4725.0000  214.661  0.20245  2.44880E-03  1.00000E-16  1.0000E+00  1.00000E-16  1.0000E+00  0.0000E+00 -2.1201E-07 -2.2454E-05 -8.4339E-06  0.0000E+00  2.0434E-05                                                                                                                                                                                                                                                                                                                                                                                                                                                                                                                                                                                                                                
     800.0000     125.0000   -4725.0000  215.199  0.20245  2.45319E-03  1.00000E-16  1.0000E+00  1.00000E-16  1.0000E+00  0.0000E+00 -2.8138E-07 -2.4277E-05 -9.3510E-06  0.0000E+00  2.2100E-05                                                                                                                                                                                                                                                                                                                                                                                                                                                                                                                                                                                                                                
     935.0000     125.0000   -4725.0000  215.464  0.20245  2.45500E-03  1.00000E-16  1.0000E+00  1.00000E-16  1.0000E+00  0.0000E+00 -3.0487E-07 -2.4891E-05 -9.6629E-06  0.0000E+00  2.2658E-05                                                                                                                                                                                                                                                                                                                                                                                                                                                                                                                                                                                                                                
    1185.0000     125.0000   -4725.0000  215.946  0.20246  2.45767E-03  1.00000E-16  1.0000E+00  1.00000E-16  1.0000E+00  0.0000E+00 -3.1277E-07 -2.5275E-05 -9.8278E-06  0.0000E+00  2.3029E-05                                                                                                                                                                                                                                                                                                                                                                                                                                                                                                                                                                                                                                