Title="TOUGHREACT V3.30-OMP flowvector.tec: Liq & Gas Fluxes (kg/s/m^2), Pore Velocities (m/s), & Heat Fluxes (J/s/m2)"                                                                                                                                                                                                                                                                                                                                                                                                                                                                                                                                                                                                                                                                                                         
Variables= "X(m)"     "Y(m)"      "Z(m)"     "FluxLiq"   "FluxLiq_X"   "FluxLiq_Y"   "FluxLiq_Z"   "PorVelLiq"  "PorVelLiqX"  "PorVelLiqY"  "PorVelLiqZ"     "FluxGas"   "FluxGas_X"   "FluxGas_Y"   "FluxGas_Z"   "PorVelGas"  "PorVelGasX"  "PorVelGasY"  "PorVelGasZ"    "HeatFlux"  "HeatFlux_X"  "HeatFlux_Y"  "HeatFlux_Z"                                                                                                                                                                                                                                                                                                                                                                                                                                                                                                
Zone T= "1.00000000E+10 sec" I=     9 J=    10 K=    23 F=Point
  1.250000E+02  1.250000E+02 -5.425000E+03  1.056312E-06  2.920541E-08 -4.983316E-09 -1.055897E-06  3.140757E-09  8.731411E-11 -1.489792E-11 -3.139508E-09  0.000000E+00  0.000000E+00  0.000000E+00  0.000000E+00  0.000000E+00  0.000000E+00  0.000000E+00  0.000000E+00  8.289950E-01  2.388784E-02 -4.076125E-03 -8.286408E-01                                                                                                                                                                                                                                                                                                                                                                                                                                                                                              
  3.750000E+02  1.250000E+02 -5.425000E+03  1.028579E-06  4.120604E-08 -5.200395E-09 -1.027740E-06  3.058808E-09  1.231963E-10 -1.554887E-11 -3.056286E-09  0.000000E+00  0.000000E+00  0.000000E+00  0.000000E+00  0.000000E+00  0.000000E+00  0.000000E+00  0.000000E+00  8.066574E-01  3.370412E-02 -4.254061E-03 -8.059417E-01                                                                                                                                                                                                                                                                                                                                                                                                                                                                                              
  6.250000E+02  1.250000E+02 -5.425000E+03  1.007871E-06 -2.640669E-08 -5.576148E-09 -1.007510E-06  2.997475E-09 -7.895359E-11 -1.667332E-11 -2.996388E-09  0.000000E+00  0.000000E+00  0.000000E+00  0.000000E+00  0.000000E+00  0.000000E+00  0.000000E+00  0.000000E+00  7.900207E-01 -2.160429E-02 -4.561830E-03 -7.897120E-01                                                                                                                                                                                                                                                                                                                                                                                                                                                                                              
  7.600000E+02  1.250000E+02 -5.425000E+03  1.014135E-06 -8.038791E-08 -5.826074E-09 -1.010927E-06  3.015923E-09 -2.403533E-10 -1.741919E-11 -3.006280E-09  0.000000E+00  0.000000E+00  0.000000E+00  0.000000E+00  0.000000E+00  0.000000E+00  0.000000E+00  0.000000E+00  7.951607E-01 -6.576452E-02 -4.766330E-03 -7.924221E-01                                                                                                                                                                                                                                                                                                                                                                                                                                                                                              
  7.800000E+02  1.250000E+02 -5.425000E+03  1.015413E-06 -8.744099E-08 -5.863360E-09 -1.011624E-06  3.019702E-09 -2.614374E-10 -1.753044E-11 -3.008313E-09  0.000000E+00  0.000000E+00  0.000000E+00  0.000000E+00  0.000000E+00  0.000000E+00  0.000000E+00  0.000000E+00  7.962295E-01 -7.153505E-02 -4.796844E-03 -7.929951E-01                                                                                                                                                                                                                                                                                                                                                                                                                                                                                              
  8.000000E+02  1.250000E+02 -5.425000E+03  1.016925E-06 -9.427920E-08 -5.900869E-09 -1.012528E-06  3.024184E-09 -2.818667E-10 -1.764234E-11 -3.010969E-09  0.000000E+00  0.000000E+00  0.000000E+00  0.000000E+00  0.000000E+00  0.000000E+00  0.000000E+00  0.000000E+00  7.975264E-01 -7.713018E-02 -4.827557E-03 -7.937732E-01                                                                                                                                                                                                                                                                                                                                                                                                                                                                                              
  9.350000E+02  1.250000E+02 -5.425000E+03  1.027505E-06 -1.280074E-07 -6.155025E-09 -1.019481E-06  3.055446E-09 -3.826146E-10 -1.840031E-11 -3.031339E-09  0.000000E+00  0.000000E+00  0.000000E+00  0.000000E+00  0.000000E+00  0.000000E+00  0.000000E+00  0.000000E+00  8.063818E-01 -1.047218E-01 -5.035566E-03 -7.995372E-01                                                                                                                                                                                                                                                                                                                                                                                                                                                                                              
  1.185000E+03  1.250000E+02 -5.425000E+03  1.056662E-06 -1.434309E-07 -6.598811E-09 -1.046862E-06  3.141055E-09 -4.286153E-10 -1.972068E-11 -3.111611E-09  0.000000E+00  0.000000E+00  0.000000E+00  0.000000E+00  0.000000E+00  0.000000E+00  0.000000E+00  0.000000E+00  8.298190E-01 -1.173358E-01 -5.398481E-03 -8.214638E-01                                                                                                                                                                                                                                                                                                                                                                                                                                                                                              
  1.435000E+03  1.250000E+02 -5.425000E+03  1.078575E-06 -6.424226E-08 -6.881585E-09 -1.076638E-06  3.204956E-09 -1.919475E-10 -2.056036E-11 -3.199137E-09  0.000000E+00  0.000000E+00  0.000000E+00  0.000000E+00  0.000000E+00  0.000000E+00  0.000000E+00  0.000000E+00  8.470813E-01 -5.255308E-02 -5.629584E-03 -8.454308E-01                                                                                                                                                                                                                                                                                                                                                                                                                                                                                              
  1.250000E+02  1.250000E+02 -5.225000E+03  3.914781E-06  5.027603E-08 -4.438514E-09 -3.914456E-06  1.149711E-08  1.490962E-10 -1.316289E-11 -1.149614E-08  0.000000E+00  0.000000E+00  0.000000E+00  0.000000E+00  0.000000E+00  0.000000E+00  0.000000E+00  0.000000E+00  2.950630E+00  3.946785E-02 -3.484155E-03 -2.950364E+00                                                                                                                                                                                                                                                                                                                                                                                                                                                                                              
  3.750000E+02  1.250000E+02 -5.225000E+03  3.786160E-06  7.777213E-08 -4.677578E-09 -3.785358E-06  1.112039E-08  2.306476E-10 -1.387343E-11 -1.111799E-08  0.000000E+00  0.000000E+00  0.000000E+00  0.000000E+00  0.000000E+00  0.000000E+00  0.000000E+00  0.000000E+00  2.836282E+00  6.103726E-02 -3.669128E-03 -2.835622E+00                                                                                                                                                                                                                                                                                                                                                                                                                                                                                              
  6.250000E+02  1.250000E+02 -5.225000E+03  3.698036E-06 -1.457308E-08 -5.070530E-09 -3.698004E-06  1.086219E-08 -4.322186E-11 -1.503972E-11 -1.086209E-08  0.000000E+00  0.000000E+00  0.000000E+00  0.000000E+00  0.000000E+00  0.000000E+00  0.000000E+00  0.000000E+00  2.759947E+00 -1.141574E-02 -3.975566E-03 -2.759920E+00                                                                                                                                                                                                                                                                                                                                                                                                                                                                                              
  7.600000E+02  1.250000E+02 -5.225000E+03  3.711317E-06 -8.926687E-08 -5.325641E-09 -3.710239E-06  1.090018E-08 -2.647550E-10 -1.579499E-11 -1.089696E-08  0.000000E+00  0.000000E+00  0.000000E+00  0.000000E+00  0.000000E+00  0.000000E+00  0.000000E+00  0.000000E+00  2.770749E+00 -6.999398E-02 -4.175751E-03 -2.769862E+00                                                                                                                                                                                                                                                                                                                                                                                                                                                                                              
  7.800000E+02  1.250000E+02 -5.225000E+03  3.714580E-06 -9.939207E-08 -5.363830E-09 -3.713247E-06  1.090969E-08 -2.947814E-10 -1.590807E-11 -1.090570E-08  0.000000E+00  0.000000E+00  0.000000E+00  0.000000E+00  0.000000E+00  0.000000E+00  0.000000E+00  0.000000E+00  2.773744E+00 -7.794166E-02 -4.205834E-03 -2.772646E+00                                                                                                                                                                                                                                                                                                                                                                                                                                                                                              
  8.000000E+02  1.250000E+02 -5.225000E+03  3.719620E-06 -1.091413E-07 -5.402498E-09 -3.718014E-06  1.092458E-08 -3.236793E-10 -1.602265E-11 -1.091977E-08  0.000000E+00  0.000000E+00  0.000000E+00  0.000000E+00  0.000000E+00  0.000000E+00  0.000000E+00  0.000000E+00  2.778916E+00 -8.560829E-02 -4.236521E-03 -2.777594E+00                                                                                                                                                                                                                                                                                                                                                                                                                                                                                              
  9.350000E+02  1.250000E+02 -5.225000E+03  3.753113E-06 -1.549859E-07 -5.663562E-09 -3.749908E-06  1.102263E-08 -4.595254E-10 -1.679559E-11 -1.101304E-08  0.000000E+00  0.000000E+00  0.000000E+00  0.000000E+00  0.000000E+00  0.000000E+00  0.000000E+00  0.000000E+00  2.810523E+00 -1.216269E-01 -4.442965E-03 -2.807887E+00                                                                                                                                                                                                                                                                                                                                                                                                                                                                                              
  1.185000E+03  1.250000E+02 -5.225000E+03  3.862557E-06 -1.834901E-07 -6.129085E-09 -3.858191E-06  1.134019E-08 -5.439038E-10 -1.817002E-11 -1.132712E-08  0.000000E+00  0.000000E+00  0.000000E+00  0.000000E+00  0.000000E+00  0.000000E+00  0.000000E+00  0.000000E+00  2.904747E+00 -1.440706E-01 -4.810767E-03 -2.901168E+00                                                                                                                                                                                                                                                                                                                                                                                                                                                                                              
  1.435000E+03  1.250000E+02 -5.225000E+03  3.991022E-06 -8.545117E-08 -6.441707E-09 -3.990102E-06  1.171428E-08 -2.532581E-10 -1.909177E-11 -1.171153E-08  0.000000E+00  0.000000E+00  0.000000E+00  0.000000E+00  0.000000E+00  0.000000E+00  0.000000E+00  0.000000E+00  3.018934E+00 -6.711918E-02 -5.059692E-03 -3.018184E+00                                                                                                                                                                                                                                                                                                                                                                                                                                                                                              
  1.250000E+02  1.250000E+02 -4.975000E+03  7.654533E-06  1.266036E-07 -2.981950E-09 -7.653485E-06  2.192427E-08  3.685529E-10 -8.684655E-12 -2.192117E-08  0.000000E+00  0.000000E+00  0.000000E+00  0.000000E+00  0.000000E+00  0.000000E+00  0.000000E+00  0.000000E+00  5.213640E+00  9.401042E-02 -2.213537E-03 -5.212792E+00                                                                                                                                                                                                                                                                                                                                                                                                                                                                                              
  3.750000E+02  1.250000E+02 -4.975000E+03  7.284561E-06  2.065976E-07 -3.289541E-09 -7.281630E-06  2.085509E-08  6.013699E-10 -9.576542E-12 -2.084642E-08  0.000000E+00  0.000000E+00  0.000000E+00  0.000000E+00  0.000000E+00  0.000000E+00  0.000000E+00  0.000000E+00  4.845903E+00  1.529140E-01 -2.421562E-03 -4.843490E+00                                                                                                                                                                                                                                                                                                                                                                                                                                                                                              
  6.250000E+02  1.250000E+02 -4.975000E+03  7.061009E-06  2.592359E-08 -3.727350E-09 -7.060961E-06  2.021047E-08  7.545597E-11 -1.084862E-11 -2.021033E-08  0.000000E+00  0.000000E+00  0.000000E+00  0.000000E+00  0.000000E+00  0.000000E+00  0.000000E+00  0.000000E+00  4.634465E+00  1.928541E-02 -2.729998E-03 -4.634424E+00                                                                                                                                                                                                                                                                                                                                                                                                                                                                                              
  7.600000E+02  1.250000E+02 -4.975000E+03  7.080484E-06 -1.187860E-07 -3.995541E-09 -7.079486E-06  2.026497E-08 -3.457041E-10 -1.162822E-11 -2.026202E-08  0.000000E+00  0.000000E+00  0.000000E+00  0.000000E+00  0.000000E+00  0.000000E+00  0.000000E+00  0.000000E+00  4.652397E+00 -8.705763E-02 -2.927580E-03 -4.651581E+00                                                                                                                                                                                                                                                                                                                                                                                                                                                                                              
  7.800000E+02  1.250000E+02 -4.975000E+03  7.088439E-06 -1.398311E-07 -4.036435E-09 -7.087058E-06  2.028795E-08 -4.069590E-10 -1.174731E-11 -2.028386E-08  0.000000E+00  0.000000E+00  0.000000E+00  0.000000E+00  0.000000E+00  0.000000E+00  0.000000E+00  0.000000E+00  4.660455E+00 -1.025569E-01 -2.958321E-03 -4.659326E+00                                                                                                                                                                                                                                                                                                                                                                                                                                                                                              
  8.000000E+02  1.250000E+02 -4.975000E+03  7.105183E-06 -1.599161E-07 -4.079315E-09 -7.103382E-06  2.033695E-08 -4.654235E-10 -1.187270E-11 -2.033162E-08  0.000000E+00  0.000000E+00  0.000000E+00  0.000000E+00  0.000000E+00  0.000000E+00  0.000000E+00  0.000000E+00  4.678432E+00 -1.175210E-01 -2.991777E-03 -4.676955E+00                                                                                                                                                                                                                                                                                                                                                                                                                                                                                              
  9.350000E+02  1.250000E+02 -4.975000E+03  7.203212E-06 -2.438574E-07 -4.364288E-09 -7.199082E-06  2.062116E-08 -7.096578E-10 -1.270402E-11 -2.060894E-08  0.000000E+00  0.000000E+00  0.000000E+00  0.000000E+00  0.000000E+00  0.000000E+00  0.000000E+00  0.000000E+00  4.778927E+00 -1.801011E-01 -3.210746E-03 -4.775531E+00                                                                                                                                                                                                                                                                                                                                                                                                                                                                                              
  1.185000E+03  1.250000E+02 -4.975000E+03  7.437124E-06 -3.211512E-07 -4.915603E-09 -7.430185E-06  2.129303E-08 -9.345794E-10 -1.430824E-11 -2.127251E-08  0.000000E+00  0.000000E+00  0.000000E+00  0.000000E+00  0.000000E+00  0.000000E+00  0.000000E+00  0.000000E+00  5.010803E+00 -2.386227E-01 -3.637056E-03 -5.005117E+00                                                                                                                                                                                                                                                                                                                                                                                                                                                                                              
  1.435000E+03  1.250000E+02 -4.975000E+03  7.796911E-06 -1.620943E-07 -5.372035E-09 -7.795224E-06  2.233145E-08 -4.717291E-10 -1.564042E-11 -2.232646E-08  0.000000E+00  0.000000E+00  0.000000E+00  0.000000E+00  0.000000E+00  0.000000E+00  0.000000E+00  0.000000E+00  5.379908E+00 -1.209252E-01 -4.007013E-03 -5.378547E+00                                                                                                                                                                                                                                                                                                                                                                                                                                                                                              
  1.250000E+02  1.250000E+02 -4.725000E+03  1.173352E-05  1.948875E-07 -7.842401E-10 -1.173190E-05  3.233363E-08  5.457991E-10 -2.199843E-12 -3.232903E-08  0.000000E+00  0.000000E+00  0.000000E+00  0.000000E+00  0.000000E+00  0.000000E+00  0.000000E+00  0.000000E+00  6.271056E+00  1.257706E-01 -5.054569E-04 -6.269795E+00                                                                                                                                                                                                                                                                                                                                                                                                                                                                                              
  3.750000E+02  1.250000E+02 -4.725000E+03  1.092388E-05  3.141433E-07 -1.080363E-09 -1.091936E-05  3.003457E-08  8.793097E-10 -3.023910E-12 -3.002170E-08  0.000000E+00  0.000000E+00  0.000000E+00  0.000000E+00  0.000000E+00  0.000000E+00  0.000000E+00  0.000000E+00  5.510891E+00  2.000226E-01 -6.720981E-04 -5.507260E+00                                                                                                                                                                                                                                                                                                                                                                                                                                                                                              
  6.250000E+02  1.250000E+02 -4.725000E+03  1.051903E-05  7.067815E-08 -1.395870E-09 -1.051880E-05  2.888663E-08  1.976973E-10 -3.902829E-12 -2.888595E-08  0.000000E+00  0.000000E+00  0.000000E+00  0.000000E+00  0.000000E+00  0.000000E+00  0.000000E+00  0.000000E+00  5.143756E+00  4.457941E-02 -8.512687E-04 -5.143562E+00                                                                                                                                                                                                                                                                                                                                                                                                                                                                                              
  7.600000E+02  1.250000E+02 -4.725000E+03  1.050748E-05 -1.131023E-07 -1.561511E-09 -1.050687E-05  2.885748E-08 -3.162227E-10 -4.365890E-12 -2.885575E-08  0.000000E+00  0.000000E+00  0.000000E+00  0.000000E+00  0.000000E+00  0.000000E+00  0.000000E+00  0.000000E+00  5.147613E+00 -6.914247E-02 -9.537333E-04 -5.147148E+00                                                                                                                                                                                                                                                                                                                                                                                                                                                                                              
  7.800000E+02  1.250000E+02 -4.725000E+03  1.051767E-05 -1.450531E-07 -1.587853E-09 -1.051667E-05  2.888697E-08 -4.055856E-10 -4.439739E-12 -2.888413E-08  0.000000E+00  0.000000E+00  0.000000E+00  0.000000E+00  0.000000E+00  0.000000E+00  0.000000E+00  0.000000E+00  5.158272E+00 -8.887889E-02 -9.706696E-04 -5.157507E+00                                                                                                                                                                                                                                                                                                                                                                                                                                                                                              
  8.000000E+02  1.250000E+02 -4.725000E+03  1.053685E-05 -1.775482E-07 -1.617324E-09 -1.053535E-05  2.894356E-08 -4.965414E-10 -4.522806E-12 -2.893930E-08  0.000000E+00  0.000000E+00  0.000000E+00  0.000000E+00  0.000000E+00  0.000000E+00  0.000000E+00  0.000000E+00  5.178632E+00 -1.095654E-01 -9.908589E-04 -5.177473E+00                                                                                                                                                                                                                                                                                                                                                                                                                                                                                              
  9.350000E+02  1.250000E+02 -4.725000E+03  1.081393E-05 -2.670515E-07 -1.815948E-09 -1.081064E-05  2.972288E-08 -7.472230E-10 -5.081628E-12 -2.971349E-08  0.000000E+00  0.000000E+00  0.000000E+00  0.000000E+00  0.000000E+00  0.000000E+00  0.000000E+00  0.000000E+00  5.415119E+00 -1.679399E-01 -1.125058E-03 -5.412514E+00                                                                                                                                                                                                                                                                                                                                                                                                                                                                                              
  1.185000E+03  1.250000E+02 -4.725000E+03  1.114516E-05 -3.861224E-07 -2.265065E-09 -1.113847E-05  3.067496E-08 -1.081541E-09 -6.345254E-12 -3.065589E-08  0.000000E+00  0.000000E+00  0.000000E+00  0.000000E+00  0.000000E+00  0.000000E+00  0.000000E+00  0.000000E+00  5.767520E+00 -2.498265E-01 -1.435399E-03 -5.762107E+00                                                                                                                                                                                                                                                                                                                                                                                                                                                                                              