Title="TOUGHREACT V3.30-OMP flowvector.tec: Liq & Gas Fluxes (kg/s/m^2), Pore Velocities (m/s), & Heat Fluxes (J/s/m2)"                                                                                                                                                                                                                                                                                                                                                                                                                                                                                                                                                                                                                                                                                                         
Variables= "X(m)"     "Y(m)"      "Z(m)"     "FluxLiq"   "FluxLiq_X"   "FluxLiq_Y"   "FluxLiq_Z"   "PorVelLiq"  "PorVelLiqX"  "PorVelLiqY"  "PorVelLiqZ"     "FluxGas"   "FluxGas_X"   "FluxGas_Y"   "FluxGas_Z"   "PorVelGas"  "PorVelGasX"  "PorVelGasY"  "PorVelGasZ"    "HeatFlux"  "HeatFlux_X"  "HeatFlux_Y"  "HeatFlux_Z"                                                                                                                                                                                                                                                                                                                                                                                                                                                                                                
Zone T= "2.00000000E+10 sec" I=     9 J=    10 K=    23 F=Point
  1.250000E+02  1.250000E+02 -5.425000E+03  1.057161E-06  3.396223E-08 -6.808972E-09 -1.056593E-06  2.219356E-09  7.176791E-11 -1.438797E-11 -2.218148E-09  0.000000E+00  0.000000E+00  0.000000E+00  0.000000E+00  0.000000E+00  0.000000E+00  0.000000E+00  0.000000E+00  9.461783E-01  3.215952E-02 -6.447802E-03 -9.456096E-01                                                                                                                                                                                                                                                                                                                                                                                                                                                                                              
  3.750000E+02  1.250000E+02 -5.425000E+03  1.023809E-06  4.612607E-08 -7.062371E-09 -1.022745E-06  2.149603E-09  9.747580E-11 -1.492556E-11 -2.147340E-09  0.000000E+00  0.000000E+00  0.000000E+00  0.000000E+00  0.000000E+00  0.000000E+00  0.000000E+00  0.000000E+00  9.145604E-01  4.367786E-02 -6.688111E-03 -9.134923E-01                                                                                                                                                                                                                                                                                                                                                                                                                                                                                              
  6.250000E+02  1.250000E+02 -5.425000E+03  9.992102E-07 -3.729051E-08 -7.498746E-09 -9.984859E-07  2.098090E-09 -7.880743E-11 -1.584878E-11 -2.096549E-09  0.000000E+00  0.000000E+00  0.000000E+00  0.000000E+00  0.000000E+00  0.000000E+00  0.000000E+00  0.000000E+00  8.916646E-01 -3.531888E-02 -7.102121E-03 -8.909365E-01                                                                                                                                                                                                                                                                                                                                                                                                                                                                                              
  7.600000E+02  1.250000E+02 -5.425000E+03  1.008278E-06 -1.032543E-07 -7.785560E-09 -1.002947E-06  2.117012E-09 -2.182121E-10 -1.645320E-11 -2.105672E-09  0.000000E+00  0.000000E+00  0.000000E+00  0.000000E+00  0.000000E+00  0.000000E+00  0.000000E+00  0.000000E+00  9.003342E-01 -9.779097E-02 -7.373777E-03 -8.949772E-01                                                                                                                                                                                                                                                                                                                                                                                                                                                                                              
  7.800000E+02  1.250000E+02 -5.425000E+03  1.010102E-06 -1.118248E-07 -7.828342E-09 -1.003862E-06  2.120835E-09 -2.363200E-10 -1.654334E-11 -2.107563E-09  0.000000E+00  0.000000E+00  0.000000E+00  0.000000E+00  0.000000E+00  0.000000E+00  0.000000E+00  0.000000E+00  9.021380E-01 -1.059109E-01 -7.414354E-03 -8.958688E-01                                                                                                                                                                                                                                                                                                                                                                                                                                                                                              
  8.000000E+02  1.250000E+02 -5.425000E+03  1.012259E-06 -1.201127E-07 -7.871403E-09 -1.005076E-06  2.125376E-09 -2.538170E-10 -1.663409E-11 -2.110100E-09  0.000000E+00  0.000000E+00  0.000000E+00  0.000000E+00  0.000000E+00  0.000000E+00  0.000000E+00  0.000000E+00  9.043717E-01 -1.137653E-01 -7.455307E-03 -8.971566E-01                                                                                                                                                                                                                                                                                                                                                                                                                                                                                              
  9.350000E+02  1.250000E+02 -5.425000E+03  1.026506E-06 -1.605104E-07 -8.162373E-09 -1.013846E-06  2.155196E-09 -3.390856E-10 -1.724680E-11 -2.128285E-09  0.000000E+00  0.000000E+00  0.000000E+00  0.000000E+00  0.000000E+00  0.000000E+00  0.000000E+00  0.000000E+00  9.183813E-01 -1.520264E-01 -7.731362E-03 -9.056779E-01                                                                                                                                                                                                                                                                                                                                                                                                                                                                                              
  1.185000E+03  1.250000E+02 -5.425000E+03  1.062816E-06 -1.774598E-07 -8.661444E-09 -1.047861E-06  2.230552E-09 -3.747836E-10 -1.829397E-11 -2.198765E-09  0.000000E+00  0.000000E+00  0.000000E+00  0.000000E+00  0.000000E+00  0.000000E+00  0.000000E+00  0.000000E+00  9.522569E-01 -1.680775E-01 -8.203741E-03 -9.372705E-01                                                                                                                                                                                                                                                                                                                                                                                                                                                                                              
  1.435000E+03  1.250000E+02 -5.425000E+03  1.086998E-06 -7.903732E-08 -8.975651E-09 -1.084083E-06  2.280310E-09 -1.668917E-10 -1.895162E-11 -2.274116E-09  0.000000E+00  0.000000E+00  0.000000E+00  0.000000E+00  0.000000E+00  0.000000E+00  0.000000E+00  0.000000E+00  9.746678E-01 -7.485915E-02 -8.501430E-03 -9.717516E-01                                                                                                                                                                                                                                                                                                                                                                                                                                                                                              
  1.250000E+02  1.250000E+02 -5.225000E+03  3.936532E-06  5.843210E-08 -6.095700E-09 -3.936094E-06  8.133805E-09  1.221767E-10 -1.274690E-11 -8.132877E-09  0.000000E+00  0.000000E+00  0.000000E+00  0.000000E+00  0.000000E+00  0.000000E+00  0.000000E+00  0.000000E+00  3.266447E+00  5.232181E-02 -5.457533E-03 -3.266024E+00                                                                                                                                                                                                                                                                                                                                                                                                                                                                                              
  3.750000E+02  1.250000E+02 -5.225000E+03  3.783101E-06  8.892127E-08 -6.366279E-09 -3.782051E-06  7.817077E-09  1.859299E-10 -1.331244E-11 -7.814854E-09  0.000000E+00  0.000000E+00  0.000000E+00  0.000000E+00  0.000000E+00  0.000000E+00  0.000000E+00  0.000000E+00  3.114500E+00  7.956874E-02 -5.688607E-03 -3.113478E+00                                                                                                                                                                                                                                                                                                                                                                                                                                                                                              
  6.250000E+02  1.250000E+02 -5.225000E+03  3.676842E-06 -2.326429E-08 -6.819360E-09 -3.676762E-06  7.598091E-09 -4.863998E-11 -1.425981E-11 -7.597922E-09  0.000000E+00  0.000000E+00  0.000000E+00  0.000000E+00  0.000000E+00  0.000000E+00  0.000000E+00  0.000000E+00  3.014233E+00 -2.073893E-02 -6.087522E-03 -3.014156E+00                                                                                                                                                                                                                                                                                                                                                                                                                                                                                              
  7.600000E+02  1.250000E+02 -5.225000E+03  3.695082E-06 -1.136501E-07 -7.112690E-09 -3.693327E-06  7.634840E-09 -2.376288E-10 -1.487149E-11 -7.631127E-09  0.000000E+00  0.000000E+00  0.000000E+00  0.000000E+00  0.000000E+00  0.000000E+00  0.000000E+00  0.000000E+00  3.030485E+00 -1.014644E-01 -6.349790E-03 -3.028779E+00                                                                                                                                                                                                                                                                                                                                                                                                                                                                                              
  7.800000E+02  1.250000E+02 -5.225000E+03  3.699520E-06 -1.257571E-07 -7.156837E-09 -3.697376E-06  7.643966E-09 -2.629409E-10 -1.496366E-11 -7.639427E-09  0.000000E+00  0.000000E+00  0.000000E+00  0.000000E+00  0.000000E+00  0.000000E+00  0.000000E+00  0.000000E+00  3.035021E+00 -1.123030E-01 -6.389735E-03 -3.032936E+00                                                                                                                                                                                                                                                                                                                                                                                                                                                                                              
  8.000000E+02  1.250000E+02 -5.225000E+03  3.706422E-06 -1.373503E-07 -7.202045E-09 -3.703870E-06  7.658385E-09 -2.871672E-10 -1.505830E-11 -7.652984E-09  0.000000E+00  0.000000E+00  0.000000E+00  0.000000E+00  0.000000E+00  0.000000E+00  0.000000E+00  0.000000E+00  3.042963E+00 -1.227175E-01 -6.431560E-03 -3.040481E+00                                                                                                                                                                                                                                                                                                                                                                                                                                                                                              
  9.350000E+02  1.250000E+02 -5.225000E+03  3.747564E-06 -1.921195E-07 -7.502998E-09 -3.742628E-06  7.743012E-09 -4.015715E-10 -1.568658E-11 -7.732575E-09  0.000000E+00  0.000000E+00  0.000000E+00  0.000000E+00  0.000000E+00  0.000000E+00  0.000000E+00  0.000000E+00  3.084692E+00 -1.718358E-01 -6.705391E-03 -3.079895E+00                                                                                                                                                                                                                                                                                                                                                                                                                                                                                              
  1.185000E+03  1.250000E+02 -5.225000E+03  3.884208E-06 -2.240619E-07 -8.028378E-09 -3.877732E-06  8.022075E-09 -4.682315E-10 -1.677937E-11 -8.008381E-09  0.000000E+00  0.000000E+00  0.000000E+00  0.000000E+00  0.000000E+00  0.000000E+00  0.000000E+00  0.000000E+00  3.214648E+00 -2.006980E-01 -7.184046E-03 -3.208369E+00                                                                                                                                                                                                                                                                                                                                                                                                                                                                                              
  1.435000E+03  1.250000E+02 -5.225000E+03  4.037547E-06 -1.034322E-07 -8.381115E-09 -4.036213E-06  8.337129E-09 -2.161220E-10 -1.751399E-11 -8.334309E-09  0.000000E+00  0.000000E+00  0.000000E+00  0.000000E+00  0.000000E+00  0.000000E+00  0.000000E+00  0.000000E+00  3.369427E+00 -9.275519E-02 -7.515623E-03 -3.368142E+00                                                                                                                                                                                                                                                                                                                                                                                                                                                                                              
  1.250000E+02  1.250000E+02 -4.975000E+03  7.761502E-06  1.450531E-07 -4.099146E-09 -7.760145E-06  1.551239E-08  2.957040E-10 -8.361218E-12 -1.550957E-08  0.000000E+00  0.000000E+00  0.000000E+00  0.000000E+00  0.000000E+00  0.000000E+00  0.000000E+00  0.000000E+00  5.457911E+00  1.169569E-01 -3.304078E-03 -5.456657E+00                                                                                                                                                                                                                                                                                                                                                                                                                                                                                              
  3.750000E+02  1.250000E+02 -4.975000E+03  7.325750E-06  2.389708E-07 -4.418803E-09 -7.321850E-06  1.464226E-08  4.871190E-10 -9.008611E-12 -1.463416E-08  0.000000E+00  0.000000E+00  0.000000E+00  0.000000E+00  0.000000E+00  0.000000E+00  0.000000E+00  0.000000E+00  5.045899E+00  1.918776E-01 -3.524218E-03 -5.042248E+00                                                                                                                                                                                                                                                                                                                                                                                                                                                                                              
  6.250000E+02  1.250000E+02 -4.975000E+03  7.046313E-06  2.534076E-08 -4.913624E-09 -7.046265E-06  1.408639E-08  5.165058E-11 -1.001551E-11 -1.408629E-08  0.000000E+00  0.000000E+00  0.000000E+00  0.000000E+00  0.000000E+00  0.000000E+00  0.000000E+00  0.000000E+00  4.797999E+00  2.051421E-02 -3.896710E-03 -4.797954E+00                                                                                                                                                                                                                                                                                                                                                                                                                                                                                              
  7.600000E+02  1.250000E+02 -4.975000E+03  7.080216E-06 -1.495404E-07 -5.218001E-09 -7.078634E-06  1.415216E-08 -3.047748E-10 -1.063461E-11 -1.414887E-08  0.000000E+00  0.000000E+00  0.000000E+00  0.000000E+00  0.000000E+00  0.000000E+00  0.000000E+00  0.000000E+00  4.826844E+00 -1.186780E-01 -4.140028E-03 -4.825383E+00                                                                                                                                                                                                                                                                                                                                                                                                                                                                                              
  7.800000E+02  1.250000E+02 -4.975000E+03  7.091573E-06 -1.739509E-07 -5.264908E-09 -7.089437E-06  1.417483E-08 -3.545333E-10 -1.073031E-11 -1.417039E-08  0.000000E+00  0.000000E+00  0.000000E+00  0.000000E+00  0.000000E+00  0.000000E+00  0.000000E+00  0.000000E+00  4.837660E+00 -1.381875E-01 -4.178776E-03 -4.835685E+00                                                                                                                                                                                                                                                                                                                                                                                                                                                                                              
  8.000000E+02  1.250000E+02 -4.975000E+03  7.113832E-06 -1.970996E-07 -5.315216E-09 -7.111099E-06  1.421992E-08 -4.017149E-10 -1.083361E-11 -1.421424E-08  0.000000E+00  0.000000E+00  0.000000E+00  0.000000E+00  0.000000E+00  0.000000E+00  0.000000E+00  0.000000E+00  4.860432E+00 -1.569135E-01 -4.222802E-03 -4.857897E+00                                                                                                                                                                                                                                                                                                                                                                                                                                                                                              
  9.350000E+02  1.250000E+02 -4.975000E+03  7.229412E-06 -2.957907E-07 -5.637411E-09 -7.223356E-06  1.445013E-08 -6.027432E-10 -1.149140E-11 -1.443755E-08  0.000000E+00  0.000000E+00  0.000000E+00  0.000000E+00  0.000000E+00  0.000000E+00  0.000000E+00  0.000000E+00  4.968619E+00 -2.368901E-01 -4.493379E-03 -4.962966E+00                                                                                                                                                                                                                                                                                                                                                                                                                                                                                              
  1.185000E+03  1.250000E+02 -4.975000E+03  7.530524E-06 -3.776144E-07 -6.237425E-09 -7.521048E-06  1.504729E-08 -7.694674E-10 -1.271335E-11 -1.502760E-08  0.000000E+00  0.000000E+00  0.000000E+00  0.000000E+00  0.000000E+00  0.000000E+00  0.000000E+00  0.000000E+00  5.250831E+00 -3.049011E-01 -5.007650E-03 -5.241968E+00                                                                                                                                                                                                                                                                                                                                                                                                                                                                                              
  1.435000E+03  1.250000E+02 -4.975000E+03  7.948656E-06 -1.859359E-07 -6.717920E-09 -7.946478E-06  1.588260E-08 -3.789161E-10 -1.369857E-11 -1.587808E-08  0.000000E+00  0.000000E+00  0.000000E+00  0.000000E+00  0.000000E+00  0.000000E+00  0.000000E+00  0.000000E+00  5.665446E+00 -1.510086E-01 -5.455282E-03 -5.663431E+00                                                                                                                                                                                                                                                                                                                                                                                                                                                                                              
  1.250000E+02  1.250000E+02 -4.725000E+03  1.202255E-05  2.463225E-07 -9.920420E-10 -1.202002E-05  2.286690E-08  4.777940E-10 -1.926533E-12 -2.286190E-08  0.000000E+00  0.000000E+00  0.000000E+00  0.000000E+00  0.000000E+00  0.000000E+00  0.000000E+00  0.000000E+00  6.376270E+00  1.584280E-01 -6.375737E-04 -6.374301E+00                                                                                                                                                                                                                                                                                                                                                                                                                                                                                              
  3.750000E+02  1.250000E+02 -4.725000E+03  1.105683E-05  4.136257E-07 -1.284630E-09 -1.104909E-05  2.100534E-08  8.022013E-10 -2.492473E-12 -2.099001E-08  0.000000E+00  0.000000E+00  0.000000E+00  0.000000E+00  0.000000E+00  0.000000E+00  0.000000E+00  0.000000E+00  5.578428E+00  2.627381E-01 -8.006351E-04 -5.572237E+00                                                                                                                                                                                                                                                                                                                                                                                                                                                                                              
  6.250000E+02  1.250000E+02 -4.725000E+03  1.049273E-05  9.623079E-08 -1.669988E-09 -1.049229E-05  1.992512E-08  1.865663E-10 -3.239381E-12 -1.992425E-08  0.000000E+00  0.000000E+00  0.000000E+00  0.000000E+00  0.000000E+00  0.000000E+00  0.000000E+00  0.000000E+00  5.145631E+00  6.069254E-02 -1.023239E-03 -5.145273E+00                                                                                                                                                                                                                                                                                                                                                                                                                                                                                              
  7.600000E+02  1.250000E+02 -4.725000E+03  1.048878E-05 -1.649585E-07 -1.858209E-09 -1.048748E-05  1.991955E-08 -3.199348E-10 -3.604049E-12 -1.991698E-08  0.000000E+00  0.000000E+00  0.000000E+00  0.000000E+00  0.000000E+00  0.000000E+00  0.000000E+00  0.000000E+00  5.155498E+00 -1.013075E-01 -1.140467E-03 -5.154503E+00                                                                                                                                                                                                                                                                                                                                                                                                                                                                                              
  7.800000E+02  1.250000E+02 -4.725000E+03  1.050574E-05 -2.105419E-07 -1.888216E-09 -1.050363E-05  1.995245E-08 -4.083608E-10 -3.662309E-12 -1.994827E-08  0.000000E+00  0.000000E+00  0.000000E+00  0.000000E+00  0.000000E+00  0.000000E+00  0.000000E+00  0.000000E+00  5.169703E+00 -1.295705E-01 -1.159895E-03 -5.168079E+00                                                                                                                                                                                                                                                                                                                                                                                                                                                                                              
  8.000000E+02  1.250000E+02 -4.725000E+03  1.053449E-05 -2.564994E-07 -1.922207E-09 -1.053137E-05  2.000939E-08 -4.974917E-10 -3.728614E-12 -2.000321E-08  0.000000E+00  0.000000E+00  0.000000E+00  0.000000E+00  0.000000E+00  0.000000E+00  0.000000E+00  0.000000E+00  5.195156E+00 -1.587280E-01 -1.183370E-03 -5.192731E+00                                                                                                                                                                                                                                                                                                                                                                                                                                                                                              
  9.350000E+02  1.250000E+02 -4.725000E+03  1.091266E-05 -3.629861E-07 -2.141897E-09 -1.090662E-05  2.072728E-08 -7.038996E-10 -4.155418E-12 -2.071532E-08  0.000000E+00  0.000000E+00  0.000000E+00  0.000000E+00  0.000000E+00  0.000000E+00  0.000000E+00  0.000000E+00  5.468044E+00 -2.282688E-01 -1.329857E-03 -5.463277E+00                                                                                                                                                                                                                                                                                                                                                                                                                                                                                              
  1.185000E+03  1.250000E+02 -4.725000E+03  1.137044E-05 -4.765789E-07 -2.595049E-09 -1.136044E-05  2.161350E-08 -9.243562E-10 -5.035529E-12 -2.159373E-08  0.000000E+00  0.000000E+00  0.000000E+00  0.000000E+00  0.000000E+00  0.000000E+00  0.000000E+00  0.000000E+00  5.874866E+00 -3.073555E-01 -1.644572E-03 -5.866820E+00                                                                                                                                                                                                                                                                                                                                                                                                                                                                                              