Title="TOUGHREACT V3.30-OMP flowvector.tec: Liq & Gas Fluxes (kg/s/m^2), Pore Velocities (m/s), & Heat Fluxes (J/s/m2)"                                                                                                                                                                                                                                                                                                                                                                                                                                                                                                                                                                                                                                                                                                         
Variables= "X(m)"     "Y(m)"      "Z(m)"     "FluxLiq"   "FluxLiq_X"   "FluxLiq_Y"   "FluxLiq_Z"   "PorVelLiq"  "PorVelLiqX"  "PorVelLiqY"  "PorVelLiqZ"     "FluxGas"   "FluxGas_X"   "FluxGas_Y"   "FluxGas_Z"   "PorVelGas"  "PorVelGasX"  "PorVelGasY"  "PorVelGasZ"    "HeatFlux"  "HeatFlux_X"  "HeatFlux_Y"  "HeatFlux_Z"                                                                                                                                                                                                                                                                                                                                                                                                                                                                                                
Zone T= "2.30000000E+10 sec" I=     9 J=    10 K=    23 F=Point
  1.250000E+02  1.250000E+02 -5.425000E+03  1.060426E-06  3.791100E-08 -7.784337E-09 -1.059720E-06  2.045257E-09  7.363440E-11 -1.511888E-11 -2.043875E-09  0.000000E+00  0.000000E+00  0.000000E+00  0.000000E+00  0.000000E+00  0.000000E+00  0.000000E+00  0.000000E+00  9.789893E-01  3.725068E-02 -7.649064E-03 -9.782504E-01                                                                                                                                                                                                                                                                                                                                                                                                                                                                                              
  3.750000E+02  1.250000E+02 -5.425000E+03  1.022818E-06  5.117104E-08 -8.064949E-09 -1.021505E-06  1.973003E-09  9.939342E-11 -1.566635E-11 -1.970436E-09  0.000000E+00  0.000000E+00  0.000000E+00  0.000000E+00  0.000000E+00  0.000000E+00  0.000000E+00  0.000000E+00  9.423296E-01  5.027972E-02 -7.925126E-03 -9.409539E-01                                                                                                                                                                                                                                                                                                                                                                                                                                                                                              
  6.250000E+02  1.250000E+02 -5.425000E+03  9.944358E-07 -4.399619E-08 -8.547588E-09 -9.934253E-07  1.918414E-09 -8.546081E-11 -1.660505E-11 -1.916437E-09  0.000000E+00  0.000000E+00  0.000000E+00  0.000000E+00  0.000000E+00  0.000000E+00  0.000000E+00  0.000000E+00  9.152389E-01 -4.323951E-02 -8.400440E-03 -9.141783E-01                                                                                                                                                                                                                                                                                                                                                                                                                                                                                              
  7.600000E+02  1.250000E+02 -5.425000E+03  1.006157E-06 -1.194465E-07 -8.862008E-09 -9.990025E-07  1.940926E-09 -2.320210E-10 -1.721371E-11 -1.926931E-09  0.000000E+00  0.000000E+00  0.000000E+00  0.000000E+00  0.000000E+00  0.000000E+00  0.000000E+00  0.000000E+00  9.268703E-01 -1.173874E-01 -8.709448E-03 -9.193655E-01                                                                                                                                                                                                                                                                                                                                                                                                                                                                                              
  7.800000E+02  1.250000E+02 -5.425000E+03  1.008465E-06 -1.291709E-07 -8.908889E-09 -1.000119E-06  1.945379E-09 -2.509047E-10 -1.730445E-11 -1.929053E-09  0.000000E+00  0.000000E+00  0.000000E+00  0.000000E+00  0.000000E+00  0.000000E+00  0.000000E+00  0.000000E+00  9.292358E-01 -1.269485E-01 -8.755614E-03 -9.204817E-01                                                                                                                                                                                                                                                                                                                                                                                                                                                                                              
  8.000000E+02  1.250000E+02 -5.425000E+03  1.011151E-06 -1.385615E-07 -8.956068E-09 -1.001573E-06  1.950578E-09 -2.691237E-10 -1.739579E-11 -1.931845E-09  0.000000E+00  0.000000E+00  0.000000E+00  0.000000E+00  0.000000E+00  0.000000E+00  0.000000E+00  0.000000E+00  9.321050E-01 -1.361847E-01 -8.802246E-03 -9.220608E-01                                                                                                                                                                                                                                                                                                                                                                                                                                                                                              
  9.350000E+02  1.250000E+02 -5.425000E+03  1.028607E-06 -1.838478E-07 -9.274366E-09 -1.012001E-06  1.984164E-09 -3.569643E-10 -1.801143E-11 -1.951706E-09  0.000000E+00  0.000000E+00  0.000000E+00  0.000000E+00  0.000000E+00  0.000000E+00  0.000000E+00  0.000000E+00  9.497923E-01 -1.806925E-01 -9.115752E-03 -9.324015E-01                                                                                                                                                                                                                                                                                                                                                                                                                                                                                              
  1.185000E+03  1.250000E+02 -5.425000E+03  1.070706E-06 -2.014134E-07 -9.813333E-09 -1.051546E-06  2.064424E-09 -3.909420E-10 -1.904941E-11 -2.026980E-09  0.000000E+00  0.000000E+00  0.000000E+00  0.000000E+00  0.000000E+00  0.000000E+00  0.000000E+00  0.000000E+00  9.901878E-01 -1.979559E-01 -9.645060E-03 -9.701506E-01                                                                                                                                                                                                                                                                                                                                                                                                                                                                                              
  1.435000E+03  1.250000E+02 -5.425000E+03  1.095734E-06 -8.914660E-08 -1.014959E-08 -1.092054E-06  2.111575E-09 -1.729978E-10 -1.969519E-11 -2.104384E-09  0.000000E+00  0.000000E+00  0.000000E+00  0.000000E+00  0.000000E+00  0.000000E+00  0.000000E+00  0.000000E+00  1.013774E+00 -8.761840E-02 -9.975933E-03 -1.009931E+00                                                                                                                                                                                                                                                                                                                                                                                                                                                                                              
  1.250000E+02  1.250000E+02 -5.225000E+03  3.957582E-06  6.556406E-08 -6.966003E-09 -3.957033E-06  7.503135E-09  1.258777E-10 -1.337561E-11 -7.502068E-09  0.000000E+00  0.000000E+00  0.000000E+00  0.000000E+00  0.000000E+00  0.000000E+00  0.000000E+00  0.000000E+00  3.349048E+00  6.055733E-02 -6.433283E-03 -3.348495E+00                                                                                                                                                                                                                                                                                                                                                                                                                                                                                              
  3.750000E+02  1.250000E+02 -5.225000E+03  3.784268E-06  1.001590E-07 -7.264869E-09 -3.782936E-06  7.175627E-09  1.923013E-10 -1.394930E-11 -7.173036E-09  0.000000E+00  0.000000E+00  0.000000E+00  0.000000E+00  0.000000E+00  0.000000E+00  0.000000E+00  0.000000E+00  3.178452E+00  9.244228E-02 -6.695173E-03 -3.177100E+00                                                                                                                                                                                                                                                                                                                                                                                                                                                                                              
  6.250000E+02  1.250000E+02 -5.225000E+03  3.659147E-06 -2.809432E-08 -7.768469E-09 -3.659030E-06  6.939612E-09 -5.393543E-11 -1.491644E-11 -6.939386E-09  0.000000E+00  0.000000E+00  0.000000E+00  0.000000E+00  0.000000E+00  0.000000E+00  0.000000E+00  0.000000E+00  3.061583E+00 -2.583247E-02 -7.152336E-03 -3.061466E+00                                                                                                                                                                                                                                                                                                                                                                                                                                                                                              
  7.600000E+02  1.250000E+02 -5.225000E+03  3.683287E-06 -1.323577E-07 -8.091278E-09 -3.680899E-06  6.984286E-09 -2.541150E-10 -1.553416E-11 -6.979644E-09  0.000000E+00  0.000000E+00  0.000000E+00  0.000000E+00  0.000000E+00  0.000000E+00  0.000000E+00  0.000000E+00  3.083107E+00 -1.218718E-01 -7.449975E-03 -3.080688E+00                                                                                                                                                                                                                                                                                                                                                                                                                                                                                              
  7.800000E+02  1.250000E+02 -5.225000E+03  3.688832E-06 -1.460965E-07 -8.139904E-09 -3.685928E-06  6.994728E-09 -2.804891E-10 -1.562735E-11 -6.989084E-09  0.000000E+00  0.000000E+00  0.000000E+00  0.000000E+00  0.000000E+00  0.000000E+00  0.000000E+00  0.000000E+00  3.088708E+00 -1.345610E-01 -7.495467E-03 -3.085767E+00                                                                                                                                                                                                                                                                                                                                                                                                                                                                                              
  8.000000E+02  1.250000E+02 -5.225000E+03  3.697035E-06 -1.592318E-07 -8.189798E-09 -3.693595E-06  7.010405E-09 -3.056897E-10 -1.572329E-11 -7.003719E-09  0.000000E+00  0.000000E+00  0.000000E+00  0.000000E+00  0.000000E+00  0.000000E+00  0.000000E+00  0.000000E+00  3.097989E+00 -1.467365E-01 -7.543378E-03 -3.094502E+00                                                                                                                                                                                                                                                                                                                                                                                                                                                                                              
  9.350000E+02  1.250000E+02 -5.225000E+03  3.746207E-06 -2.207587E-07 -8.520173E-09 -3.739688E-06  7.102899E-09 -4.236761E-10 -1.635621E-11 -7.090234E-09  0.000000E+00  0.000000E+00  0.000000E+00  0.000000E+00  0.000000E+00  0.000000E+00  0.000000E+00  0.000000E+00  3.146762E+00 -2.036632E-01 -7.853839E-03 -3.140155E+00                                                                                                                                                                                                                                                                                                                                                                                                                                                                                              
  1.185000E+03  1.250000E+02 -5.225000E+03  3.906549E-06 -2.541459E-07 -9.087376E-09 -3.898262E-06  7.402789E-09 -4.876220E-10 -1.743810E-11 -7.386691E-09  0.000000E+00  0.000000E+00  0.000000E+00  0.000000E+00  0.000000E+00  0.000000E+00  0.000000E+00  0.000000E+00  3.298808E+00 -2.348374E-01 -8.387867E-03 -3.290428E+00                                                                                                                                                                                                                                                                                                                                                                                                                                                                                              
  1.435000E+03  1.250000E+02 -5.225000E+03  4.076486E-06 -1.161910E-07 -9.464755E-09 -4.074819E-06  7.722414E-09 -2.229024E-10 -1.815923E-11 -7.719175E-09  0.000000E+00  0.000000E+00  0.000000E+00  0.000000E+00  0.000000E+00  0.000000E+00  0.000000E+00  0.000000E+00  3.470293E+00 -1.075041E-01 -8.756852E-03 -3.468617E+00                                                                                                                                                                                                                                                                                                                                                                                                                                                                                              
  1.250000E+02  1.250000E+02 -4.975000E+03  7.837766E-06  1.677272E-07 -4.645366E-09 -7.835970E-06  1.433823E-08  3.132822E-10 -8.681200E-12 -1.433481E-08  0.000000E+00  0.000000E+00  0.000000E+00  0.000000E+00  0.000000E+00  0.000000E+00  0.000000E+00  0.000000E+00  5.539605E+00  1.372897E-01 -3.801443E-03 -5.537902E+00                                                                                                                                                                                                                                                                                                                                                                                                                                                                                              
  3.750000E+02  1.250000E+02 -4.975000E+03  7.341599E-06  2.812614E-07 -5.003375E-09 -7.336207E-06  1.343766E-08  5.253308E-10 -9.347155E-12 -1.342739E-08  0.000000E+00  0.000000E+00  0.000000E+00  0.000000E+00  0.000000E+00  0.000000E+00  0.000000E+00  0.000000E+00  5.091188E+00  2.292729E-01 -4.053115E-03 -5.086021E+00                                                                                                                                                                                                                                                                                                                                                                                                                                                                                              
  6.250000E+02  1.250000E+02 -4.975000E+03  6.994933E-06  2.960833E-08 -5.570696E-09 -6.994868E-06  1.281150E-08  5.529060E-11 -1.040669E-11 -1.281138E-08  0.000000E+00  0.000000E+00  0.000000E+00  0.000000E+00  0.000000E+00  0.000000E+00  0.000000E+00  0.000000E+00  4.802024E+00  2.432615E-02 -4.489335E-03 -4.801961E+00                                                                                                                                                                                                                                                                                                                                                                                                                                                                                              
  7.600000E+02  1.250000E+02 -4.975000E+03  7.047457E-06 -1.823822E-07 -5.910863E-09 -7.045094E-06  1.290450E-08 -3.406557E-10 -1.104029E-11 -1.290000E-08  0.000000E+00  0.000000E+00  0.000000E+00  0.000000E+00  0.000000E+00  0.000000E+00  0.000000E+00  0.000000E+00  4.843834E+00 -1.470734E-01 -4.765502E-03 -4.841598E+00                                                                                                                                                                                                                                                                                                                                                                                                                                                                                              
  7.800000E+02  1.250000E+02 -4.975000E+03  7.062489E-06 -2.109488E-07 -5.963276E-09 -7.059335E-06  1.293174E-08 -3.940180E-10 -1.113822E-11 -1.292573E-08  0.000000E+00  0.000000E+00  0.000000E+00  0.000000E+00  0.000000E+00  0.000000E+00  0.000000E+00  0.000000E+00  4.857204E+00 -1.702736E-01 -4.809565E-03 -4.854216E+00                                                                                                                                                                                                                                                                                                                                                                                                                                                                                              
  8.000000E+02  1.250000E+02 -4.975000E+03  7.089482E-06 -2.379344E-07 -6.019516E-09 -7.085486E-06  1.298139E-08 -4.444060E-10 -1.124397E-11 -1.297377E-08  0.000000E+00  0.000000E+00  0.000000E+00  0.000000E+00  0.000000E+00  0.000000E+00  0.000000E+00  0.000000E+00  4.883296E+00 -1.924381E-01 -4.859751E-03 -4.879500E+00                                                                                                                                                                                                                                                                                                                                                                                                                                                                                              
  9.350000E+02  1.250000E+02 -4.975000E+03  7.231237E-06 -3.498277E-07 -6.375522E-09 -7.222767E-06  1.323711E-08 -6.531653E-10 -1.190895E-11 -1.322098E-08  0.000000E+00  0.000000E+00  0.000000E+00  0.000000E+00  0.000000E+00  0.000000E+00  0.000000E+00  0.000000E+00  5.005536E+00 -2.845447E-01 -5.162407E-03 -4.997439E+00                                                                                                                                                                                                                                                                                                                                                                                                                                                                                              
  1.185000E+03  1.250000E+02 -4.975000E+03  7.593425E-06 -4.345814E-07 -7.018372E-09 -7.580975E-06  1.389002E-08 -8.112730E-10 -1.310592E-11 -1.386630E-08  0.000000E+00  0.000000E+00  0.000000E+00  0.000000E+00  0.000000E+00  0.000000E+00  0.000000E+00  0.000000E+00  5.328757E+00 -3.563126E-01 -5.722839E-03 -5.316828E+00                                                                                                                                                                                                                                                                                                                                                                                                                                                                                              
  1.435000E+03  1.250000E+02 -4.975000E+03  8.056337E-06 -2.101958E-07 -7.521281E-09 -8.053591E-06  1.473101E-08 -3.923935E-10 -1.404878E-11 -1.472578E-08  0.000000E+00  0.000000E+00  0.000000E+00  0.000000E+00  0.000000E+00  0.000000E+00  0.000000E+00  0.000000E+00  5.771516E+00 -1.733488E-01 -6.202345E-03 -5.768909E+00                                                                                                                                                                                                                                                                                                                                                                                                                                                                                              
  1.250000E+02  1.250000E+02 -4.725000E+03  1.223596E-05  3.118876E-07 -1.051106E-09 -1.223199E-05  2.123152E-08  5.528263E-10 -1.865052E-12 -2.122432E-08  0.000000E+00  0.000000E+00  0.000000E+00  0.000000E+00  0.000000E+00  0.000000E+00  0.000000E+00  0.000000E+00  6.482737E+00  2.001982E-01 -6.743365E-04 -6.479645E+00                                                                                                                                                                                                                                                                                                                                                                                                                                                                                              
  3.750000E+02  1.250000E+02 -4.725000E+03  1.110996E-05  5.500353E-07 -1.392663E-09 -1.109634E-05  1.927189E-08  9.750704E-10 -2.470521E-12 -1.924721E-08  0.000000E+00  0.000000E+00  0.000000E+00  0.000000E+00  0.000000E+00  0.000000E+00  0.000000E+00  0.000000E+00  5.611227E+00  3.486539E-01 -8.680062E-04 -5.600385E+00                                                                                                                                                                                                                                                                                                                                                                                                                                                                                              
  6.250000E+02  1.250000E+02 -4.725000E+03  1.030959E-05  1.332923E-07 -1.900315E-09 -1.030873E-05  1.789725E-08  2.362153E-10 -3.372386E-12 -1.789570E-08  0.000000E+00  0.000000E+00  0.000000E+00  0.000000E+00  0.000000E+00  0.000000E+00  0.000000E+00  0.000000E+00  5.070172E+00  8.400966E-02 -1.166001E-03 -5.069475E+00                                                                                                                                                                                                                                                                                                                                                                                                                                                                                              
  7.600000E+02  1.250000E+02 -4.725000E+03  1.031768E-05 -2.425750E-07 -2.128226E-09 -1.031482E-05  1.791277E-08 -4.303657E-10 -3.775928E-12 -1.790760E-08  0.000000E+00  0.000000E+00  0.000000E+00  0.000000E+00  0.000000E+00  0.000000E+00  0.000000E+00  0.000000E+00  5.088768E+00 -1.491841E-01 -1.308204E-03 -5.086580E+00                                                                                                                                                                                                                                                                                                                                                                                                                                                                                              
  7.800000E+02  1.250000E+02 -4.725000E+03  1.034765E-05 -3.077927E-07 -2.164206E-09 -1.034307E-05  1.796444E-08 -5.460796E-10 -3.839723E-12 -1.795614E-08  0.000000E+00  0.000000E+00  0.000000E+00  0.000000E+00  0.000000E+00  0.000000E+00  0.000000E+00  0.000000E+00  5.109397E+00 -1.896542E-01 -1.331473E-03 -5.105876E+00                                                                                                                                                                                                                                                                                                                                                                                                                                                                                              
  8.000000E+02  1.250000E+02 -4.725000E+03  1.039267E-05 -3.723603E-07 -2.204650E-09 -1.038600E-05  1.804353E-08 -6.605148E-10 -3.911741E-12 -1.803144E-08  0.000000E+00  0.000000E+00  0.000000E+00  0.000000E+00  0.000000E+00  0.000000E+00  0.000000E+00  0.000000E+00  5.142904E+00 -2.305439E-01 -1.359327E-03 -5.137734E+00                                                                                                                                                                                                                                                                                                                                                                                                                                                                                              
  9.350000E+02  1.250000E+02 -4.725000E+03  1.093174E-05 -4.899697E-07 -2.460039E-09 -1.092076E-05  1.896163E-08 -8.685902E-10 -4.364065E-12 -1.894172E-08  0.000000E+00  0.000000E+00  0.000000E+00  0.000000E+00  0.000000E+00  0.000000E+00  0.000000E+00  0.000000E+00  5.484891E+00 -3.078376E-01 -1.527745E-03 -5.476246E+00                                                                                                                                                                                                                                                                                                                                                                                                                                                                                              
  1.185000E+03  1.250000E+02 -4.725000E+03  1.150453E-05 -5.907802E-07 -2.947627E-09 -1.148935E-05  1.995874E-08 -1.046970E-09 -5.227110E-12 -1.993126E-08  0.000000E+00  0.000000E+00  0.000000E+00  0.000000E+00  0.000000E+00  0.000000E+00  0.000000E+00  0.000000E+00  5.948702E+00 -3.802272E-01 -1.867018E-03 -5.936538E+00                                                                                                                                                                                                                                                                                                                                                                                                                                                                                              