Title="TOUGHREACT V3.30-OMP flowvector.tec: Liq & Gas Fluxes (kg/s/m^2), Pore Velocities (m/s), & Heat Fluxes (J/s/m2)"                                                                                                                                                                                                                                                                                                                                                                                                                                                                                                                                                                                                                                                                                                         
Variables= "X(m)"     "Y(m)"      "Z(m)"     "FluxLiq"   "FluxLiq_X"   "FluxLiq_Y"   "FluxLiq_Z"   "PorVelLiq"  "PorVelLiqX"  "PorVelLiqY"  "PorVelLiqZ"     "FluxGas"   "FluxGas_X"   "FluxGas_Y"   "FluxGas_Z"   "PorVelGas"  "PorVelGasX"  "PorVelGasY"  "PorVelGasZ"    "HeatFlux"  "HeatFlux_X"  "HeatFlux_Y"  "HeatFlux_Z"                                                                                                                                                                                                                                                                                                                                                                                                                                                                                                
Zone T= "3.00000000E+09 sec" I=     9 J=    10 K=    23 F=Point
  1.250000E+02  1.250000E+02 -5.425000E+03  1.137593E-06  3.421830E-08 -3.584158E-09 -1.137073E-06  4.792922E-09  1.449409E-10 -1.518132E-11 -4.790706E-09  0.000000E+00  0.000000E+00  0.000000E+00  0.000000E+00  0.000000E+00  0.000000E+00  0.000000E+00  0.000000E+00  7.836979E-01  2.440947E-02 -2.556778E-03 -7.833135E-01                                                                                                                                                                                                                                                                                                                                                                                                                                                                                              
  3.750000E+02  1.250000E+02 -5.425000E+03  1.105690E-06  4.874782E-08 -3.766449E-09 -1.104608E-06  4.659609E-09  2.064927E-10 -1.595561E-11 -4.655004E-09  0.000000E+00  0.000000E+00  0.000000E+00  0.000000E+00  0.000000E+00  0.000000E+00  0.000000E+00  0.000000E+00  7.617148E-01  3.477402E-02 -2.686834E-03 -7.609159E-01                                                                                                                                                                                                                                                                                                                                                                                                                                                                                              
  6.250000E+02  1.250000E+02 -5.425000E+03  1.080799E-06 -3.075354E-08 -4.080789E-09 -1.080354E-06  4.555285E-09 -1.302758E-10 -1.728827E-11 -4.553389E-09  0.000000E+00  0.000000E+00  0.000000E+00  0.000000E+00  0.000000E+00  0.000000E+00  0.000000E+00  0.000000E+00  7.445186E-01 -2.193991E-02 -2.911152E-03 -7.441895E-01                                                                                                                                                                                                                                                                                                                                                                                                                                                                                              
  7.600000E+02  1.250000E+02 -5.425000E+03  1.088336E-06 -9.481897E-08 -4.278808E-09 -1.084190E-06  4.586732E-09 -4.016669E-10 -1.812546E-11 -4.569075E-09  0.000000E+00  0.000000E+00  0.000000E+00  0.000000E+00  0.000000E+00  0.000000E+00  0.000000E+00  0.000000E+00  7.499112E-01 -6.764297E-02 -3.052484E-03 -7.468480E-01                                                                                                                                                                                                                                                                                                                                                                                                                                                                                              
  7.800000E+02  1.250000E+02 -5.425000E+03  1.089863E-06 -1.032194E-07 -4.308188E-09 -1.084955E-06  4.593119E-09 -4.372446E-10 -1.824964E-11 -4.572224E-09  0.000000E+00  0.000000E+00  0.000000E+00  0.000000E+00  0.000000E+00  0.000000E+00  0.000000E+00  0.000000E+00  7.510059E-01 -7.363609E-02 -3.073454E-03 -7.473809E-01                                                                                                                                                                                                                                                                                                                                                                                                                                                                                              
  8.000000E+02  1.250000E+02 -5.425000E+03  1.091622E-06 -1.113834E-07 -4.337570E-09 -1.085916E-06  4.600479E-09 -4.717962E-10 -1.837380E-11 -4.576185E-09  0.000000E+00  0.000000E+00  0.000000E+00  0.000000E+00  0.000000E+00  0.000000E+00  0.000000E+00  0.000000E+00  7.522665E-01 -7.946136E-02 -3.094428E-03 -7.480516E-01                                                                                                                                                                                                                                                                                                                                                                                                                                                                                              
  9.350000E+02  1.250000E+02 -5.425000E+03  1.104211E-06 -1.524994E-07 -4.535593E-09 -1.093620E-06  4.653073E-09 -6.457792E-10 -1.921030E-11 -4.608003E-09  0.000000E+00  0.000000E+00  0.000000E+00  0.000000E+00  0.000000E+00  0.000000E+00  0.000000E+00  0.000000E+00  7.612323E-01 -1.087999E-01 -3.235779E-03 -7.534101E-01                                                                                                                                                                                                                                                                                                                                                                                                                                                                                              
  1.185000E+03  1.250000E+02 -5.425000E+03  1.140284E-06 -1.697628E-07 -4.848965E-09 -1.127565E-06  4.802944E-09 -7.186952E-10 -2.053005E-11 -4.748824E-09  0.000000E+00  0.000000E+00  0.000000E+00  0.000000E+00  0.000000E+00  0.000000E+00  0.000000E+00  0.000000E+00  7.862841E-01 -1.211229E-01 -3.459597E-03 -7.768912E-01                                                                                                                                                                                                                                                                                                                                                                                                                                                                                              
  1.435000E+03  1.250000E+02 -5.425000E+03  1.163112E-06 -7.496328E-08 -5.021155E-09 -1.160683E-06  4.896750E-09 -3.173069E-10 -2.125294E-11 -4.886413E-09  0.000000E+00  0.000000E+00  0.000000E+00  0.000000E+00  0.000000E+00  0.000000E+00  0.000000E+00  0.000000E+00  8.015867E-01 -5.348683E-02 -3.582666E-03 -7.997922E-01                                                                                                                                                                                                                                                                                                                                                                                                                                                                                              
  1.250000E+02  1.250000E+02 -5.225000E+03  4.205931E-06  5.921812E-08 -3.128403E-09 -4.205513E-06  1.751577E-08  2.489927E-10 -1.315355E-11 -1.751399E-08  0.000000E+00  0.000000E+00  0.000000E+00  0.000000E+00  0.000000E+00  0.000000E+00  0.000000E+00  0.000000E+00  2.818814E+00  4.080204E-02 -2.155532E-03 -2.818518E+00                                                                                                                                                                                                                                                                                                                                                                                                                                                                                              
  3.750000E+02  1.250000E+02 -5.225000E+03  4.056691E-06  9.275828E-08 -3.338142E-09 -4.055629E-06  1.690285E-08  3.900503E-10 -1.403872E-11 -1.689834E-08  0.000000E+00  0.000000E+00  0.000000E+00  0.000000E+00  0.000000E+00  0.000000E+00  0.000000E+00  0.000000E+00  2.715006E+00  6.391075E-02 -2.299960E-03 -2.714253E+00                                                                                                                                                                                                                                                                                                                                                                                                                                                                                              
  6.250000E+02  1.250000E+02 -5.225000E+03  3.949611E-06 -1.606140E-08 -3.689765E-09 -3.949577E-06  1.646145E-08 -6.755375E-11 -1.551954E-11 -1.646131E-08  0.000000E+00  0.000000E+00  0.000000E+00  0.000000E+00  0.000000E+00  0.000000E+00  0.000000E+00  0.000000E+00  2.639758E+00 -1.106614E-02 -2.542175E-03 -2.639734E+00                                                                                                                                                                                                                                                                                                                                                                                                                                                                                              
  7.600000E+02  1.250000E+02 -5.225000E+03  3.965547E-06 -1.052760E-07 -3.904957E-09 -3.964147E-06  1.652582E-08 -4.427587E-10 -1.642290E-11 -1.651988E-08  0.000000E+00  0.000000E+00  0.000000E+00  0.000000E+00  0.000000E+00  0.000000E+00  0.000000E+00  0.000000E+00  2.650786E+00 -7.253428E-02 -2.690494E-03 -2.649792E+00                                                                                                                                                                                                                                                                                                                                                                                                                                                                                              
  7.800000E+02  1.250000E+02 -5.225000E+03  3.969126E-06 -1.172802E-07 -3.936886E-09 -3.967391E-06  1.654042E-08 -4.932343E-10 -1.655690E-11 -1.653306E-08  0.000000E+00  0.000000E+00  0.000000E+00  0.000000E+00  0.000000E+00  0.000000E+00  0.000000E+00  0.000000E+00  2.653393E+00 -8.080613E-02 -2.712512E-03 -2.652161E+00                                                                                                                                                                                                                                                                                                                                                                                                                                                                                              
  8.000000E+02  1.250000E+02 -5.225000E+03  3.973891E-06 -1.289380E-07 -3.968829E-09 -3.971797E-06  1.655998E-08 -5.422197E-10 -1.669093E-11 -1.655110E-08  0.000000E+00  0.000000E+00  0.000000E+00  0.000000E+00  0.000000E+00  0.000000E+00  0.000000E+00  0.000000E+00  2.657009E+00 -8.884202E-02 -2.734554E-03 -2.655521E+00                                                                                                                                                                                                                                                                                                                                                                                                                                                                                              
  9.350000E+02  1.250000E+02 -5.225000E+03  4.010863E-06 -1.864549E-07 -4.184061E-09 -4.006524E-06  1.671149E-08 -7.838190E-10 -1.759361E-11 -1.669309E-08  0.000000E+00  0.000000E+00  0.000000E+00  0.000000E+00  0.000000E+00  0.000000E+00  0.000000E+00  0.000000E+00  2.684401E+00 -1.284860E-01 -2.883043E-03 -2.681323E+00                                                                                                                                                                                                                                                                                                                                                                                                                                                                                              
  1.185000E+03  1.250000E+02 -5.225000E+03  4.151190E-06 -2.183534E-07 -4.528589E-09 -4.145441E-06  1.728408E-08 -9.176001E-10 -1.903335E-11 -1.725969E-08  0.000000E+00  0.000000E+00  0.000000E+00  0.000000E+00  0.000000E+00  0.000000E+00  0.000000E+00  0.000000E+00  2.781840E+00 -1.504802E-01 -3.120808E-03 -2.777765E+00                                                                                                                                                                                                                                                                                                                                                                                                                                                                                              
  1.435000E+03  1.250000E+02 -5.225000E+03  4.292354E-06 -9.923080E-08 -4.710933E-09 -4.291204E-06  1.785944E-08 -4.169136E-10 -1.979197E-11 -1.785456E-08  0.000000E+00  0.000000E+00  0.000000E+00  0.000000E+00  0.000000E+00  0.000000E+00  0.000000E+00  0.000000E+00  2.879075E+00 -6.838947E-02 -3.246789E-03 -2.878261E+00                                                                                                                                                                                                                                                                                                                                                                                                                                                                                              
  1.250000E+02  1.250000E+02 -4.975000E+03  8.194575E-06  1.696939E-07 -1.855731E-09 -8.192817E-06  3.342793E-08  7.017223E-10 -7.674354E-12 -3.342057E-08  0.000000E+00  0.000000E+00  0.000000E+00  0.000000E+00  0.000000E+00  0.000000E+00  0.000000E+00  0.000000E+00  5.265548E+00  1.125661E-01 -1.230931E-03 -5.264344E+00                                                                                                                                                                                                                                                                                                                                                                                                                                                                                              
  3.750000E+02  1.250000E+02 -4.975000E+03  7.737279E-06  2.790661E-07 -2.180983E-09 -7.732244E-06  3.157895E-08  1.154213E-09 -9.023750E-12 -3.155784E-08  0.000000E+00  0.000000E+00  0.000000E+00  0.000000E+00  0.000000E+00  0.000000E+00  0.000000E+00  0.000000E+00  4.890719E+00  1.849725E-01 -1.443741E-03 -4.887220E+00                                                                                                                                                                                                                                                                                                                                                                                                                                                                                              
  6.250000E+02  1.250000E+02 -4.975000E+03  7.456083E-06  4.238720E-08 -2.676524E-09 -7.455962E-06  3.043393E-08  1.753102E-10 -1.107669E-11 -3.043342E-08  0.000000E+00  0.000000E+00  0.000000E+00  0.000000E+00  0.000000E+00  0.000000E+00  0.000000E+00  0.000000E+00  4.654390E+00  2.814181E-02 -1.768391E-03 -4.654305E+00                                                                                                                                                                                                                                                                                                                                                                                                                                                                                              
  7.600000E+02  1.250000E+02 -4.975000E+03  7.477235E-06 -1.481432E-07 -2.951528E-09 -7.475767E-06  3.051748E-08 -6.130022E-10 -1.221313E-11 -3.051132E-08  0.000000E+00  0.000000E+00  0.000000E+00  0.000000E+00  0.000000E+00  0.000000E+00  0.000000E+00  0.000000E+00  4.672123E+00 -9.790375E-02 -1.950403E-03 -4.671097E+00                                                                                                                                                                                                                                                                                                                                                                                                                                                                                              
  7.800000E+02  1.250000E+02 -4.975000E+03  7.485644E-06 -1.762431E-07 -2.992647E-09 -7.483568E-06  3.055180E-08 -7.292646E-10 -1.238308E-11 -3.054309E-08  0.000000E+00  0.000000E+00  0.000000E+00  0.000000E+00  0.000000E+00  0.000000E+00  0.000000E+00  0.000000E+00  4.679931E+00 -1.165001E-01 -1.977782E-03 -4.678481E+00                                                                                                                                                                                                                                                                                                                                                                                                                                                                                              
  8.000000E+02  1.250000E+02 -4.975000E+03  7.501070E-06 -2.034325E-07 -3.034232E-09 -7.498310E-06  3.061547E-08 -8.416995E-10 -1.255506E-11 -3.060389E-08  0.000000E+00  0.000000E+00  0.000000E+00  0.000000E+00  0.000000E+00  0.000000E+00  0.000000E+00  0.000000E+00  4.695146E+00 -1.345839E-01 -2.005699E-03 -4.693216E+00                                                                                                                                                                                                                                                                                                                                                                                                                                                                                              
  9.350000E+02  1.250000E+02 -4.975000E+03  7.614811E-06 -3.242875E-07 -3.314923E-09 -7.607902E-06  3.108283E-08 -1.341032E-09 -1.371521E-11 -3.105389E-08  0.000000E+00  0.000000E+00  0.000000E+00  0.000000E+00  0.000000E+00  0.000000E+00  0.000000E+00  0.000000E+00  4.804161E+00 -2.149069E-01 -2.194179E-03 -4.799351E+00                                                                                                                                                                                                                                                                                                                                                                                                                                                                                              
  1.185000E+03  1.250000E+02 -4.975000E+03  7.942229E-06 -4.213697E-07 -3.795641E-09 -7.931043E-06  3.240092E-08 -1.741515E-09 -1.569297E-11 -3.235408E-08  0.000000E+00  0.000000E+00  0.000000E+00  0.000000E+00  0.000000E+00  0.000000E+00  0.000000E+00  0.000000E+00  5.073660E+00 -2.795887E-01 -2.516745E-03 -5.065950E+00                                                                                                                                                                                                                                                                                                                                                                                                                                                                                              
  1.435000E+03  1.250000E+02 -4.975000E+03  8.351566E-06 -2.054298E-07 -4.016584E-09 -8.349038E-06  3.404234E-08 -8.487399E-10 -1.659476E-11 -3.403175E-08  0.000000E+00  0.000000E+00  0.000000E+00  0.000000E+00  0.000000E+00  0.000000E+00  0.000000E+00  0.000000E+00  5.402085E+00 -1.364046E-01 -2.666961E-03 -5.400362E+00                                                                                                                                                                                                                                                                                                                                                                                                                                                                                              
  1.250000E+02  1.250000E+02 -4.725000E+03  1.258018E-05  3.750771E-07  1.597631E-11 -1.257458E-05  4.987982E-08  1.507027E-09  6.427555E-14 -4.985705E-08  0.000000E+00  0.000000E+00  0.000000E+00  0.000000E+00  0.000000E+00  0.000000E+00  0.000000E+00  0.000000E+00  7.072892E+00  2.364490E-01  1.017707E-05 -7.068939E+00                                                                                                                                                                                                                                                                                                                                                                                                                                                                                              
  3.750000E+02  1.250000E+02 -4.725000E+03  1.138035E-05  5.760891E-07 -4.896911E-10 -1.136576E-05  4.497361E-08  2.314088E-09 -1.968011E-12 -4.491403E-08  0.000000E+00  0.000000E+00  0.000000E+00  0.000000E+00  0.000000E+00  0.000000E+00  0.000000E+00  0.000000E+00  5.796954E+00  3.598651E-01 -3.004402E-04 -5.785773E+00                                                                                                                                                                                                                                                                                                                                                                                                                                                                                              
  6.250000E+02  1.250000E+02 -4.725000E+03  1.089525E-05  1.355722E-07 -1.097403E-09 -1.089441E-05  4.298485E-08  5.443682E-10 -4.405632E-12 -4.298141E-08  0.000000E+00  0.000000E+00  0.000000E+00  0.000000E+00  0.000000E+00  0.000000E+00  0.000000E+00  0.000000E+00  5.305340E+00  8.398847E-02 -6.601488E-04 -5.304675E+00                                                                                                                                                                                                                                                                                                                                                                                                                                                                                              
  7.600000E+02  1.250000E+02 -4.725000E+03  1.086796E-05 -1.557260E-07 -1.366480E-09 -1.086685E-05  4.288104E-08 -6.251513E-10 -5.485727E-12 -4.287648E-08  0.000000E+00  0.000000E+00  0.000000E+00  0.000000E+00  0.000000E+00  0.000000E+00  0.000000E+00  0.000000E+00  5.302795E+00 -9.389182E-02 -8.231934E-04 -5.301963E+00                                                                                                                                                                                                                                                                                                                                                                                                                                                                                              
  7.800000E+02  1.250000E+02 -4.725000E+03  1.087474E-05 -2.057634E-07 -1.408487E-09 -1.087279E-05  4.291034E-08 -8.260882E-10 -5.654637E-12 -4.290239E-08  0.000000E+00  0.000000E+00  0.000000E+00  0.000000E+00  0.000000E+00  0.000000E+00  0.000000E+00  0.000000E+00  5.312584E+00 -1.242855E-01 -8.492183E-04 -5.311130E+00                                                                                                                                                                                                                                                                                                                                                                                                                                                                                              
  8.000000E+02  1.250000E+02 -4.725000E+03  1.088813E-05 -2.568906E-07 -1.453504E-09 -1.088510E-05  4.296870E-08 -1.031596E-09 -5.836193E-12 -4.295631E-08  0.000000E+00  0.000000E+00  0.000000E+00  0.000000E+00  0.000000E+00  0.000000E+00  0.000000E+00  0.000000E+00  5.330373E+00 -1.563863E-01 -8.780224E-04 -5.328078E+00                                                                                                                                                                                                                                                                                                                                                                                                                                                                                              
  9.350000E+02  1.250000E+02 -4.725000E+03  1.119497E-05 -4.679416E-07 -1.768983E-09 -1.118519E-05  4.422155E-08 -1.879717E-09 -7.109268E-12 -4.418158E-08  0.000000E+00  0.000000E+00  0.000000E+00  0.000000E+00  0.000000E+00  0.000000E+00  0.000000E+00  0.000000E+00  5.622128E+00 -2.903424E-01 -1.082126E-03 -5.614626E+00                                                                                                                                                                                                                                                                                                                                                                                                                                                                                              
  1.185000E+03  1.250000E+02 -4.725000E+03  1.173322E-05 -7.296586E-07 -2.479920E-09 -1.171051E-05  4.643793E-08 -2.931744E-09 -9.971909E-12 -4.634530E-08  0.000000E+00  0.000000E+00  0.000000E+00  0.000000E+00  0.000000E+00  0.000000E+00  0.000000E+00  0.000000E+00  6.245907E+00 -4.604663E-01 -1.547437E-03 -6.228910E+00                                                                                                                                                                                                                                                                                                                                                                                                                                                                                              