Title="TOUGHREACT V3.30-OMP flowvector.tec: Liq & Gas Fluxes (kg/s/m^2), Pore Velocities (m/s), & Heat Fluxes (J/s/m2)"                                                                                                                                                                                                                                                                                                                                                                                                                                                                                                                                                                                                                                                                                                         
Variables= "X(m)"     "Y(m)"      "Z(m)"     "FluxLiq"   "FluxLiq_X"   "FluxLiq_Y"   "FluxLiq_Z"   "PorVelLiq"  "PorVelLiqX"  "PorVelLiqY"  "PorVelLiqZ"     "FluxGas"   "FluxGas_X"   "FluxGas_Y"   "FluxGas_Z"   "PorVelGas"  "PorVelGasX"  "PorVelGasY"  "PorVelGasZ"    "HeatFlux"  "HeatFlux_X"  "HeatFlux_Y"  "HeatFlux_Z"                                                                                                                                                                                                                                                                                                                                                                                                                                                                                                
Zone T= "1.67000000E+10 sec" I=     9 J=    10 K=    23 F=Point
  1.250000E+02  1.250000E+02 -5.425000E+03  1.056315E-06  3.199958E-08 -6.024507E-09 -1.055813E-06  2.456079E-09  7.486062E-11 -1.409339E-11 -2.454898E-09  0.000000E+00  0.000000E+00  0.000000E+00  0.000000E+00  0.000000E+00  0.000000E+00  0.000000E+00  0.000000E+00  9.100830E-01  2.899871E-02 -5.459749E-03 -9.096045E-01                                                                                                                                                                                                                                                                                                                                                                                                                                                                                              
  3.750000E+02  1.250000E+02 -5.425000E+03  1.025313E-06  4.409354E-08 -6.259357E-09 -1.024346E-06  2.384303E-09  1.031574E-10 -1.464480E-11 -2.382026E-09  0.000000E+00  0.000000E+00  0.000000E+00  0.000000E+00  0.000000E+00  0.000000E+00  0.000000E+00  0.000000E+00  8.819342E-01  3.995896E-02 -5.672987E-03 -8.810102E-01                                                                                                                                                                                                                                                                                                                                                                                                                                                                                              
  6.250000E+02  1.250000E+02 -5.425000E+03  1.002467E-06 -3.257124E-08 -6.663944E-09 -1.001916E-06  2.331325E-09 -7.620430E-11 -1.559235E-11 -2.330027E-09  0.000000E+00  0.000000E+00  0.000000E+00  0.000000E+00  0.000000E+00  0.000000E+00  0.000000E+00  0.000000E+00  8.614763E-01 -2.952384E-02 -6.040271E-03 -8.609490E-01                                                                                                                                                                                                                                                                                                                                                                                                                                                                                              
  7.600000E+02  1.250000E+02 -5.425000E+03  1.010235E-06 -9.334483E-08 -6.930858E-09 -1.005890E-06  2.349255E-09 -2.183922E-10 -1.621530E-11 -2.339025E-09  0.000000E+00  0.000000E+00  0.000000E+00  0.000000E+00  0.000000E+00  0.000000E+00  0.000000E+00  0.000000E+00  8.685733E-01 -8.460734E-02 -6.282227E-03 -8.644199E-01                                                                                                                                                                                                                                                                                                                                                                                                                                                                                              
  7.800000E+02  1.250000E+02 -5.425000E+03  1.011813E-06 -1.012647E-07 -6.970671E-09 -1.006709E-06  2.352914E-09 -2.369176E-10 -1.630820E-11 -2.340899E-09  0.000000E+00  0.000000E+00  0.000000E+00  0.000000E+00  0.000000E+00  0.000000E+00  0.000000E+00  0.000000E+00  8.700610E-01 -9.178770E-02 -6.318348E-03 -8.651828E-01                                                                                                                                                                                                                                                                                                                                                                                                                                                                                              
  8.000000E+02  1.250000E+02 -5.425000E+03  1.013691E-06 -1.089299E-07 -7.010732E-09 -1.007797E-06  2.357285E-09 -2.548346E-10 -1.640169E-11 -2.343413E-09  0.000000E+00  0.000000E+00  0.000000E+00  0.000000E+00  0.000000E+00  0.000000E+00  0.000000E+00  0.000000E+00  8.719099E-01 -9.873854E-02 -6.354759E-03 -8.662778E-01                                                                                                                                                                                                                                                                                                                                                                                                                                                                                              
  9.350000E+02  1.250000E+02 -5.425000E+03  1.026312E-06 -1.464281E-07 -7.281728E-09 -1.015787E-06  2.386518E-09 -3.424683E-10 -1.703371E-11 -2.361757E-09  0.000000E+00  0.000000E+00  0.000000E+00  0.000000E+00  0.000000E+00  0.000000E+00  0.000000E+00  0.000000E+00  8.837904E-01 -1.327265E-01 -6.600691E-03 -8.737423E-01                                                                                                                                                                                                                                                                                                                                                                                                                                                                                              
  1.185000E+03  1.250000E+02 -5.425000E+03  1.059425E-06 -1.628279E-07 -7.749488E-09 -1.046808E-06  2.462615E-09 -3.807231E-10 -1.812126E-11 -2.432940E-09  0.000000E+00  0.000000E+00  0.000000E+00  0.000000E+00  0.000000E+00  0.000000E+00  0.000000E+00  0.000000E+00  9.134602E-01 -1.475877E-01 -7.024425E-03 -9.014311E-01                                                                                                                                                                                                                                                                                                                                                                                                                                                                                              
  1.435000E+03  1.250000E+02 -5.425000E+03  1.082830E-06 -7.274464E-08 -8.045184E-09 -1.080354E-06  2.516017E-09 -1.700629E-10 -1.880717E-11 -2.510192E-09  0.000000E+00  0.000000E+00  0.000000E+00  0.000000E+00  0.000000E+00  0.000000E+00  0.000000E+00  0.000000E+00  9.343039E-01 -6.593530E-02 -7.292314E-03 -9.319459E-01                                                                                                                                                                                                                                                                                                                                                                                                                                                                                              
  1.250000E+02  1.250000E+02 -5.225000E+03  3.926032E-06  5.489244E-08 -5.390690E-09 -3.925644E-06  8.996225E-09  1.271880E-10 -1.249145E-11 -8.995317E-09  0.000000E+00  0.000000E+00  0.000000E+00  0.000000E+00  0.000000E+00  0.000000E+00  0.000000E+00  0.000000E+00  3.175130E+00  4.731291E-02 -4.645771E-03 -3.174774E+00                                                                                                                                                                                                                                                                                                                                                                                                                                                                                              
  3.750000E+02  1.250000E+02 -5.225000E+03  3.783280E-06  8.392273E-08 -5.643600E-09 -3.782345E-06  8.669148E-09  1.944561E-10 -1.307761E-11 -8.666957E-09  0.000000E+00  0.000000E+00  0.000000E+00  0.000000E+00  0.000000E+00  0.000000E+00  0.000000E+00  0.000000E+00  3.035784E+00  7.229314E-02 -4.855683E-03 -3.034919E+00                                                                                                                                                                                                                                                                                                                                                                                                                                                                                              
  6.250000E+02  1.250000E+02 -5.225000E+03  3.685596E-06 -1.958367E-08 -6.064054E-09 -3.685539E-06  8.445630E-09 -4.537421E-11 -1.405196E-11 -8.445496E-09  0.000000E+00  0.000000E+00  0.000000E+00  0.000000E+00  0.000000E+00  0.000000E+00  0.000000E+00  0.000000E+00  2.944546E+00 -1.681131E-02 -5.212870E-03 -2.944494E+00                                                                                                                                                                                                                                                                                                                                                                                                                                                                                              
  7.600000E+02  1.250000E+02 -5.225000E+03  3.701363E-06 -1.029285E-07 -6.336777E-09 -3.699926E-06  8.480854E-09 -2.384915E-10 -1.468244E-11 -8.477488E-09  0.000000E+00  0.000000E+00  0.000000E+00  0.000000E+00  0.000000E+00  0.000000E+00  0.000000E+00  0.000000E+00  2.958357E+00 -8.848997E-02 -5.447658E-03 -2.957028E+00                                                                                                                                                                                                                                                                                                                                                                                                                                                                                              
  7.800000E+02  1.250000E+02 -5.225000E+03  3.705279E-06 -1.141707E-07 -6.377749E-09 -3.703515E-06  8.489784E-09 -2.645380E-10 -1.477723E-11 -8.485649E-09  0.000000E+00  0.000000E+00  0.000000E+00  0.000000E+00  0.000000E+00  0.000000E+00  0.000000E+00  0.000000E+00  2.962292E+00 -9.817691E-02 -5.483254E-03 -2.960660E+00                                                                                                                                                                                                                                                                                                                                                                                                                                                                                              
  8.000000E+02  1.250000E+02 -5.225000E+03  3.711477E-06 -1.249500E-07 -6.419563E-09 -3.709368E-06  8.504147E-09 -2.895008E-10 -1.487417E-11 -8.499205E-09  0.000000E+00  0.000000E+00  0.000000E+00  0.000000E+00  0.000000E+00  0.000000E+00  0.000000E+00  0.000000E+00  2.969316E+00 -1.074938E-01 -5.520219E-03 -2.967364E+00                                                                                                                                                                                                                                                                                                                                                                                                                                                                                              
  9.350000E+02  1.250000E+02 -5.225000E+03  3.749187E-06 -1.757189E-07 -6.699353E-09 -3.745061E-06  8.590331E-09 -4.070295E-10 -1.552154E-11 -8.580668E-09  0.000000E+00  0.000000E+00  0.000000E+00  0.000000E+00  0.000000E+00  0.000000E+00  0.000000E+00  0.000000E+00  3.007426E+00 -1.513120E-01 -5.764709E-03 -3.003612E+00                                                                                                                                                                                                                                                                                                                                                                                                                                                                                              
  1.185000E+03  1.250000E+02 -5.225000E+03  3.873232E-06 -2.063069E-07 -7.191590E-09 -3.867727E-06  8.871532E-09 -4.777771E-10 -1.665672E-11 -8.858642E-09  0.000000E+00  0.000000E+00  0.000000E+00  0.000000E+00  0.000000E+00  0.000000E+00  0.000000E+00  0.000000E+00  3.123644E+00 -1.778666E-01 -6.195089E-03 -3.118569E+00                                                                                                                                                                                                                                                                                                                                                                                                                                                                                              
  1.435000E+03  1.250000E+02 -5.225000E+03  4.016104E-06 -9.568180E-08 -7.522467E-09 -4.014957E-06  9.197306E-09 -2.215595E-10 -1.742010E-11 -9.194621E-09  0.000000E+00  0.000000E+00  0.000000E+00  0.000000E+00  0.000000E+00  0.000000E+00  0.000000E+00  0.000000E+00  3.265117E+00 -8.256992E-02 -6.491339E-03 -3.264066E+00                                                                                                                                                                                                                                                                                                                                                                                                                                                                                              
  1.250000E+02  1.250000E+02 -4.975000E+03  7.715640E-06  1.343672E-07 -3.645149E-09 -7.714469E-06  1.714677E-08  3.042617E-10 -8.258849E-12 -1.714407E-08  0.000000E+00  0.000000E+00  0.000000E+00  0.000000E+00  0.000000E+00  0.000000E+00  0.000000E+00  0.000000E+00  5.385140E+00  1.061168E-01 -2.877692E-03 -5.384094E+00                                                                                                                                                                                                                                                                                                                                                                                                                                                                                              
  3.750000E+02  1.250000E+02 -4.975000E+03  7.311632E-06  2.202138E-07 -3.945831E-09 -7.308314E-06  1.624530E-08  4.985923E-10 -8.934871E-12 -1.623764E-08  0.000000E+00  0.000000E+00  0.000000E+00  0.000000E+00  0.000000E+00  0.000000E+00  0.000000E+00  0.000000E+00  4.991764E+00  1.731964E-01 -3.082373E-03 -4.988758E+00                                                                                                                                                                                                                                                                                                                                                                                                                                                                                              
  6.250000E+02  1.250000E+02 -4.975000E+03  7.060178E-06  2.440300E-08 -4.402312E-09 -7.060134E-06  1.568618E-08  5.524908E-11 -9.965920E-12 -1.568607E-08  0.000000E+00  0.000000E+00  0.000000E+00  0.000000E+00  0.000000E+00  0.000000E+00  0.000000E+00  0.000000E+00  4.760847E+00  1.933989E-02 -3.418963E-03 -4.760807E+00                                                                                                                                                                                                                                                                                                                                                                                                                                                                                              
  7.600000E+02  1.250000E+02 -4.975000E+03  7.086844E-06 -1.343149E-07 -4.685003E-09 -7.085569E-06  1.574386E-08 -3.040320E-10 -1.060480E-11 -1.574092E-08  0.000000E+00  0.000000E+00  0.000000E+00  0.000000E+00  0.000000E+00  0.000000E+00  0.000000E+00  0.000000E+00  4.784446E+00 -1.043909E-01 -3.640225E-03 -4.783305E+00                                                                                                                                                                                                                                                                                                                                                                                                                                                                                              
  7.800000E+02  1.250000E+02 -4.975000E+03  7.096615E-06 -1.568633E-07 -4.728462E-09 -7.094880E-06  1.576565E-08 -3.550809E-10 -1.070329E-11 -1.576164E-08  0.000000E+00  0.000000E+00  0.000000E+00  0.000000E+00  0.000000E+00  0.000000E+00  0.000000E+00  0.000000E+00  4.794069E+00 -1.220327E-01 -3.675258E-03 -4.792515E+00                                                                                                                                                                                                                                                                                                                                                                                                                                                                                              
  8.000000E+02  1.250000E+02 -4.975000E+03  7.116592E-06 -1.782900E-07 -4.774852E-09 -7.114357E-06  1.581083E-08 -4.035922E-10 -1.080905E-11 -1.580568E-08  0.000000E+00  0.000000E+00  0.000000E+00  0.000000E+00  0.000000E+00  0.000000E+00  0.000000E+00  0.000000E+00  4.815067E+00 -1.390091E-01 -3.714705E-03 -4.813058E+00                                                                                                                                                                                                                                                                                                                                                                                                                                                                                              
  9.350000E+02  1.250000E+02 -4.975000E+03  7.222987E-06 -2.692089E-07 -5.075524E-09 -7.217967E-06  1.604810E-08 -6.093356E-10 -1.149136E-11 -1.603652E-08  0.000000E+00  0.000000E+00  0.000000E+00  0.000000E+00  0.000000E+00  0.000000E+00  0.000000E+00  0.000000E+00  4.919217E+00 -2.111537E-01 -3.962067E-03 -4.914681E+00                                                                                                                                                                                                                                                                                                                                                                                                                                                                                              
  1.185000E+03  1.250000E+02 -4.975000E+03  7.492444E-06 -3.476092E-07 -5.643158E-09 -7.484374E-06  1.664526E-08 -7.868326E-10 -1.277658E-11 -1.662665E-08  0.000000E+00  0.000000E+00  0.000000E+00  0.000000E+00  0.000000E+00  0.000000E+00  0.000000E+00  0.000000E+00  5.179676E+00 -2.748342E-01 -4.436697E-03 -5.172378E+00                                                                                                                                                                                                                                                                                                                                                                                                                                                                                              
  1.435000E+03  1.250000E+02 -4.975000E+03  7.882757E-06 -1.726981E-07 -6.103118E-09 -7.880862E-06  1.751632E-08 -3.909588E-10 -1.382460E-11 -1.751195E-08  0.000000E+00  0.000000E+00  0.000000E+00  0.000000E+00  0.000000E+00  0.000000E+00  0.000000E+00  0.000000E+00  5.576509E+00 -1.373081E-01 -4.851647E-03 -5.574816E+00                                                                                                                                                                                                                                                                                                                                                                                                                                                                                              
  1.250000E+02  1.250000E+02 -4.725000E+03  1.189626E-05  2.148916E-07 -9.260745E-10 -1.189432E-05  2.524605E-08  4.644389E-10 -2.004113E-12 -2.524178E-08  0.000000E+00  0.000000E+00  0.000000E+00  0.000000E+00  0.000000E+00  0.000000E+00  0.000000E+00  0.000000E+00  6.319772E+00  1.384853E-01 -5.962299E-04 -6.318255E+00                                                                                                                                                                                                                                                                                                                                                                                                                                                                                              
  3.750000E+02  1.250000E+02 -4.725000E+03  1.101634E-05  3.547249E-07 -1.192410E-09 -1.101063E-05  2.333988E-08  7.664234E-10 -2.576907E-12 -2.332730E-08  0.000000E+00  0.000000E+00  0.000000E+00  0.000000E+00  0.000000E+00  0.000000E+00  0.000000E+00  0.000000E+00  5.556740E+00  2.256845E-01 -7.431656E-04 -5.552155E+00                                                                                                                                                                                                                                                                                                                                                                                                                                                                                              
  6.250000E+02  1.250000E+02 -4.725000E+03  1.053574E-05  8.108802E-08 -1.526288E-09 -1.053543E-05  2.230291E-08  1.751185E-10 -3.296552E-12 -2.230222E-08  0.000000E+00  0.000000E+00  0.000000E+00  0.000000E+00  0.000000E+00  0.000000E+00  0.000000E+00  0.000000E+00  5.161193E+00  5.118546E-02 -9.342097E-04 -5.160939E+00                                                                                                                                                                                                                                                                                                                                                                                                                                                                                              
  7.600000E+02  1.250000E+02 -4.725000E+03  1.052841E-05 -1.364619E-07 -1.696154E-09 -1.052752E-05  2.228951E-08 -2.947109E-10 -3.663179E-12 -2.228756E-08  0.000000E+00  0.000000E+00  0.000000E+00  0.000000E+00  0.000000E+00  0.000000E+00  0.000000E+00  0.000000E+00  5.168217E+00 -8.372106E-02 -1.039843E-03 -5.167539E+00                                                                                                                                                                                                                                                                                                                                                                                                                                                                                              
  7.800000E+02  1.250000E+02 -4.725000E+03  1.054177E-05 -1.744339E-07 -1.723285E-09 -1.054032E-05  2.231881E-08 -3.767392E-10 -3.721878E-12 -2.231563E-08  0.000000E+00  0.000000E+00  0.000000E+00  0.000000E+00  0.000000E+00  0.000000E+00  0.000000E+00  0.000000E+00  5.180532E+00 -1.072517E-01 -1.057398E-03 -5.179421E+00                                                                                                                                                                                                                                                                                                                                                                                                                                                                                              
  8.000000E+02  1.250000E+02 -4.725000E+03  1.056566E-05 -2.129340E-07 -1.754007E-09 -1.056351E-05  2.237231E-08 -4.599235E-10 -3.788681E-12 -2.236758E-08  0.000000E+00  0.000000E+00  0.000000E+00  0.000000E+00  0.000000E+00  0.000000E+00  0.000000E+00  0.000000E+00  5.203441E+00 -1.317229E-01 -1.078624E-03 -5.201773E+00                                                                                                                                                                                                                                                                                                                                                                                                                                                                                              
  9.350000E+02  1.250000E+02 -4.725000E+03  1.088844E-05 -3.094305E-07 -1.955693E-09 -1.088404E-05  2.306287E-08 -6.684108E-10 -4.225811E-12 -2.305318E-08  0.000000E+00  0.000000E+00  0.000000E+00  0.000000E+00  0.000000E+00  0.000000E+00  0.000000E+00  0.000000E+00  5.453855E+00 -1.947194E-01 -1.214078E-03 -5.450378E+00                                                                                                                                                                                                                                                                                                                                                                                                                                                                                              
  1.185000E+03  1.250000E+02 -4.725000E+03  1.128841E-05 -4.201744E-07 -2.384639E-09 -1.128059E-05  2.393534E-08 -9.081198E-10 -5.155482E-12 -2.391811E-08  0.000000E+00  0.000000E+00  0.000000E+00  0.000000E+00  0.000000E+00  0.000000E+00  0.000000E+00  0.000000E+00  5.833396E+00 -2.714787E-01 -1.512175E-03 -5.827075E+00                                                                                                                                                                                                                                                                                                                                                                                                                                                                                              