Title="TOUGHREACT V3.30-OMP flowvector.tec: Liq & Gas Fluxes (kg/s/m^2), Pore Velocities (m/s), & Heat Fluxes (J/s/m2)"                                                                                                                                                                                                                                                                                                                                                                                                                                                                                                                                                                                                                                                                                                         
Variables= "X(m)"     "Y(m)"      "Z(m)"     "FluxLiq"   "FluxLiq_X"   "FluxLiq_Y"   "FluxLiq_Z"   "PorVelLiq"  "PorVelLiqX"  "PorVelLiqY"  "PorVelLiqZ"     "FluxGas"   "FluxGas_X"   "FluxGas_Y"   "FluxGas_Z"   "PorVelGas"  "PorVelGasX"  "PorVelGasY"  "PorVelGasZ"    "HeatFlux"  "HeatFlux_X"  "HeatFlux_Y"  "HeatFlux_Z"                                                                                                                                                                                                                                                                                                                                                                                                                                                                                                
Zone T= "1.33000000E+10 sec" I=     9 J=    10 K=    23 F=Point
  1.250000E+02  1.250000E+02 -5.425000E+03  1.056225E-06  3.051289E-08 -5.402752E-09 -1.055770E-06  2.761474E-09  8.023592E-11 -1.420646E-11 -2.760272E-09  0.000000E+00  0.000000E+00  0.000000E+00  0.000000E+00  0.000000E+00  0.000000E+00  0.000000E+00  0.000000E+00  8.705105E-01  2.631620E-02 -4.659844E-03 -8.701001E-01                                                                                                                                                                                                                                                                                                                                                                                                                                                                                              
  3.750000E+02  1.250000E+02 -5.425000E+03  1.027018E-06  4.263866E-08 -5.624806E-09 -1.026117E-06  2.685507E-09  1.121257E-10 -1.479232E-11 -2.683124E-09  0.000000E+00  0.000000E+00  0.000000E+00  0.000000E+00  0.000000E+00  0.000000E+00  0.000000E+00  0.000000E+00  8.454283E-01  3.677485E-02 -4.851784E-03 -8.446141E-01                                                                                                                                                                                                                                                                                                                                                                                                                                                                                              
  6.250000E+02  1.250000E+02 -5.425000E+03  1.005371E-06 -2.892780E-08 -6.007873E-09 -1.004936E-06  2.629090E-09 -7.607432E-11 -1.580067E-11 -2.627942E-09  0.000000E+00  0.000000E+00  0.000000E+00  0.000000E+00  0.000000E+00  0.000000E+00  0.000000E+00  0.000000E+00  8.269911E-01 -2.495563E-02 -5.182693E-03 -8.265982E-01                                                                                                                                                                                                                                                                                                                                                                                                                                                                                              
  7.600000E+02  1.250000E+02 -5.425000E+03  1.012270E-06 -8.587292E-08 -6.261348E-09 -1.008601E-06  2.646975E-09 -2.258293E-10 -1.646585E-11 -2.637273E-09  0.000000E+00  0.000000E+00  0.000000E+00  0.000000E+00  0.000000E+00  0.000000E+00  0.000000E+00  0.000000E+00  8.329761E-01 -7.407733E-02 -5.401383E-03 -8.296581E-01                                                                                                                                                                                                                                                                                                                                                                                                                                                                                              
  7.800000E+02  1.250000E+02 -5.425000E+03  1.013677E-06 -9.330400E-08 -6.299155E-09 -1.009354E-06  2.650639E-09 -2.453677E-10 -1.656504E-11 -2.639206E-09  0.000000E+00  0.000000E+00  0.000000E+00  0.000000E+00  0.000000E+00  0.000000E+00  0.000000E+00  0.000000E+00  8.342290E-01 -8.048865E-02 -5.434017E-03 -8.303193E-01                                                                                                                                                                                                                                                                                                                                                                                                                                                                                              
  8.000000E+02  1.250000E+02 -5.425000E+03  1.015351E-06 -1.005019E-07 -6.337187E-09 -1.010345E-06  2.655012E-09 -2.642805E-10 -1.666482E-11 -2.641773E-09  0.000000E+00  0.000000E+00  0.000000E+00  0.000000E+00  0.000000E+00  0.000000E+00  0.000000E+00  0.000000E+00  8.357740E-01 -8.669956E-02 -5.466878E-03 -8.312469E-01                                                                                                                                                                                                                                                                                                                                                                                                                                                                                              
  9.350000E+02  1.250000E+02 -5.425000E+03  1.026825E-06 -1.358164E-07 -6.594677E-09 -1.017781E-06  2.684862E-09 -3.570553E-10 -1.734005E-11 -2.660957E-09  0.000000E+00  0.000000E+00  0.000000E+00  0.000000E+00  0.000000E+00  0.000000E+00  0.000000E+00  0.000000E+00  8.459999E-01 -1.171621E-01 -5.689166E-03 -8.378285E-01                                                                                                                                                                                                                                                                                                                                                                                                                                                                                              
  1.185000E+03  1.250000E+02 -5.425000E+03  1.057652E-06 -1.516607E-07 -7.041214E-09 -1.046698E-06  2.764491E-09 -3.986106E-10 -1.850786E-11 -2.735540E-09  0.000000E+00  0.000000E+00  0.000000E+00  0.000000E+00  0.000000E+00  0.000000E+00  0.000000E+00  0.000000E+00  8.722560E-01 -1.308255E-01 -6.074160E-03 -8.623679E-01                                                                                                                                                                                                                                                                                                                                                                                                                                                                                              
  1.435000E+03  1.250000E+02 -5.425000E+03  1.080268E-06 -6.786158E-08 -7.324271E-09 -1.078110E-06  2.822516E-09 -1.783333E-10 -1.924654E-11 -2.816810E-09  0.000000E+00  0.000000E+00  0.000000E+00  0.000000E+00  0.000000E+00  0.000000E+00  0.000000E+00  0.000000E+00  8.912944E-01 -5.853743E-02 -6.318088E-03 -8.893476E-01                                                                                                                                                                                                                                                                                                                                                                                                                                                                                              
  1.250000E+02  1.250000E+02 -5.225000E+03  3.919423E-06  5.235229E-08 -4.826478E-09 -3.919071E-06  1.011106E-08  1.364626E-10 -1.258145E-11 -1.011014E-08  0.000000E+00  0.000000E+00  0.000000E+00  0.000000E+00  0.000000E+00  0.000000E+00  0.000000E+00  0.000000E+00  3.069595E+00  4.316239E-02 -3.978869E-03 -3.069289E+00                                                                                                                                                                                                                                                                                                                                                                                                                                                                                              
  3.750000E+02  1.250000E+02 -5.225000E+03  3.784546E-06  8.055055E-08 -5.068293E-09 -3.783685E-06  9.763337E-09  2.099713E-10 -1.321256E-11 -9.761070E-09  0.000000E+00  0.000000E+00  0.000000E+00  0.000000E+00  0.000000E+00  0.000000E+00  0.000000E+00  0.000000E+00  2.942454E+00  6.638246E-02 -4.173130E-03 -2.941703E+00                                                                                                                                                                                                                                                                                                                                                                                                                                                                                              
  6.250000E+02  1.250000E+02 -5.225000E+03  3.692402E-06 -1.664807E-08 -5.467589E-09 -3.692360E-06  9.525947E-09 -4.339626E-11 -1.425386E-11 -9.525837E-09  0.000000E+00  0.000000E+00  0.000000E+00  0.000000E+00  0.000000E+00  0.000000E+00  0.000000E+00  0.000000E+00  2.858783E+00 -1.368115E-02 -4.498801E-03 -2.858747E+00                                                                                                                                                                                                                                                                                                                                                                                                                                                                                              
  7.600000E+02  1.250000E+02 -5.225000E+03  3.706708E-06 -9.507213E-08 -5.726478E-09 -3.705484E-06  9.561922E-09 -2.478311E-10 -1.492737E-11 -9.558698E-09  0.000000E+00  0.000000E+00  0.000000E+00  0.000000E+00  0.000000E+00  0.000000E+00  0.000000E+00  0.000000E+00  2.870934E+00 -7.823312E-02 -4.712071E-03 -2.869864E+00                                                                                                                                                                                                                                                                                                                                                                                                                                                                                              
  7.800000E+02  1.250000E+02 -5.225000E+03  3.710264E-06 -1.056870E-07 -5.765295E-09 -3.708754E-06  9.571042E-09 -2.754986E-10 -1.502840E-11 -9.567064E-09  0.000000E+00  0.000000E+00  0.000000E+00  0.000000E+00  0.000000E+00  0.000000E+00  0.000000E+00  0.000000E+00  2.874380E+00 -8.698240E-02 -4.744252E-03 -2.873059E+00                                                                                                                                                                                                                                                                                                                                                                                                                                                                                              
  8.000000E+02  1.250000E+02 -5.225000E+03  3.715876E-06 -1.158826E-07 -5.804749E-09 -3.714064E-06  9.585657E-09 -3.020615E-10 -1.513123E-11 -9.580885E-09  0.000000E+00  0.000000E+00  0.000000E+00  0.000000E+00  0.000000E+00  0.000000E+00  0.000000E+00  0.000000E+00  2.880500E+00 -9.540756E-02 -4.777363E-03 -2.878916E+00                                                                                                                                                                                                                                                                                                                                                                                                                                                                                              
  9.350000E+02  1.250000E+02 -5.225000E+03  3.751327E-06 -1.637334E-07 -6.070012E-09 -3.747747E-06  9.676918E-09 -4.266869E-10 -1.582165E-11 -9.667494E-09  0.000000E+00  0.000000E+00  0.000000E+00  0.000000E+00  0.000000E+00  0.000000E+00  0.000000E+00  0.000000E+00  2.915483E+00 -1.349023E-01 -4.998412E-03 -2.912356E+00                                                                                                                                                                                                                                                                                                                                                                                                                                                                                              
  1.185000E+03  1.250000E+02 -5.225000E+03  3.866787E-06 -1.930778E-07 -6.539205E-09 -3.861958E-06  9.971561E-09 -5.030420E-10 -1.703916E-11 -9.958850E-09  0.000000E+00  0.000000E+00  0.000000E+00  0.000000E+00  0.000000E+00  0.000000E+00  0.000000E+00  0.000000E+00  3.020189E+00 -1.592188E-01 -5.389304E-03 -3.015984E+00                                                                                                                                                                                                                                                                                                                                                                                                                                                                                              
  1.435000E+03  1.250000E+02 -5.225000E+03  4.001384E-06 -8.976581E-08 -6.853973E-09 -4.000372E-06  1.031678E-08 -2.338441E-10 -1.785553E-11 -1.031411E-08  0.000000E+00  0.000000E+00  0.000000E+00  0.000000E+00  0.000000E+00  0.000000E+00  0.000000E+00  0.000000E+00  3.148136E+00 -7.407356E-02 -5.655634E-03 -3.147259E+00                                                                                                                                                                                                                                                                                                                                                                                                                                                                                              
  1.250000E+02  1.250000E+02 -4.975000E+03  7.681204E-06  1.285979E-07 -3.266908E-09 -7.680127E-06  1.927178E-08  3.283646E-10 -8.346316E-12 -1.926898E-08  0.000000E+00  0.000000E+00  0.000000E+00  0.000000E+00  0.000000E+00  0.000000E+00  0.000000E+00  0.000000E+00  5.305424E+00  9.882250E-02 -2.509544E-03 -5.304503E+00                                                                                                                                                                                                                                                                                                                                                                                                                                                                                              
  3.750000E+02  1.250000E+02 -4.975000E+03  7.298176E-06  2.103277E-07 -3.562272E-09 -7.295144E-06  1.830361E-08  5.369896E-10 -9.095849E-12 -1.829573E-08  0.000000E+00  0.000000E+00  0.000000E+00  0.000000E+00  0.000000E+00  0.000000E+00  0.000000E+00  0.000000E+00  4.925750E+00  1.610082E-01 -2.709609E-03 -4.923117E+00                                                                                                                                                                                                                                                                                                                                                                                                                                                                                              
  6.250000E+02  1.250000E+02 -4.975000E+03  7.063329E-06  2.473183E-08 -3.999131E-09 -7.063284E-06  1.771186E-08  6.314061E-11 -1.020852E-11 -1.771174E-08  0.000000E+00  0.000000E+00  0.000000E+00  0.000000E+00  0.000000E+00  0.000000E+00  0.000000E+00  0.000000E+00  4.705592E+00  1.905627E-02 -3.024764E-03 -4.705553E+00                                                                                                                                                                                                                                                                                                                                                                                                                                                                                              
  7.600000E+02  1.250000E+02 -4.975000E+03  7.085829E-06 -1.248926E-07 -4.268944E-09 -7.084727E-06  1.776693E-08 -3.187843E-10 -1.089630E-11 -1.776407E-08  0.000000E+00  0.000000E+00  0.000000E+00  0.000000E+00  0.000000E+00  0.000000E+00  0.000000E+00  0.000000E+00  4.725993E+00 -9.453117E-02 -3.230281E-03 -4.725046E+00                                                                                                                                                                                                                                                                                                                                                                                                                                                                                              
  7.800000E+02  1.250000E+02 -4.975000E+03  7.094582E-06 -1.464141E-07 -4.310267E-09 -7.093069E-06  1.778904E-08 -3.737259E-10 -1.100188E-11 -1.778511E-08  0.000000E+00  0.000000E+00  0.000000E+00  0.000000E+00  0.000000E+00  0.000000E+00  0.000000E+00  0.000000E+00  4.734774E+00 -1.109177E-01 -3.262560E-03 -4.733474E+00                                                                                                                                                                                                                                                                                                                                                                                                                                                                                              
  8.000000E+02  1.250000E+02 -4.975000E+03  7.112870E-06 -1.669033E-07 -4.354036E-09 -7.110910E-06  1.783586E-08 -4.260372E-10 -1.111430E-11 -1.783076E-08  0.000000E+00  0.000000E+00  0.000000E+00  0.000000E+00  0.000000E+00  0.000000E+00  0.000000E+00  0.000000E+00  4.754280E+00 -1.267142E-01 -3.298380E-03 -4.752590E+00                                                                                                                                                                                                                                                                                                                                                                                                                                                                                              
  9.350000E+02  1.250000E+02 -4.975000E+03  7.214416E-06 -2.529706E-07 -4.641276E-09 -7.209978E-06  1.809280E-08 -6.456807E-10 -1.184946E-11 -1.808127E-08  0.000000E+00  0.000000E+00  0.000000E+00  0.000000E+00  0.000000E+00  0.000000E+00  0.000000E+00  0.000000E+00  4.856535E+00 -1.931471E-01 -3.527836E-03 -4.852691E+00                                                                                                                                                                                                                                                                                                                                                                                                                                                                                              
  1.185000E+03  1.250000E+02 -4.975000E+03  7.462975E-06 -3.293355E-07 -5.188791E-09 -7.455703E-06  1.871692E-08 -8.406423E-10 -1.324758E-11 -1.869802E-08  0.000000E+00  0.000000E+00  0.000000E+00  0.000000E+00  0.000000E+00  0.000000E+00  0.000000E+00  0.000000E+00  5.101378E+00 -2.532974E-01 -3.970319E-03 -5.095084E+00                                                                                                                                                                                                                                                                                                                                                                                                                                                                                              
  1.435000E+03  1.250000E+02 -4.975000E+03  7.833381E-06 -1.647487E-07 -5.636166E-09 -7.831646E-06  1.965299E-08 -4.205728E-10 -1.439582E-11 -1.964848E-08  0.000000E+00  0.000000E+00  0.000000E+00  0.000000E+00  0.000000E+00  0.000000E+00  0.000000E+00  0.000000E+00  5.483344E+00 -1.273486E-01 -4.355924E-03 -5.481863E+00                                                                                                                                                                                                                                                                                                                                                                                                                                                                                              
  1.250000E+02  1.250000E+02 -4.725000E+03  1.180276E-05  1.984192E-07 -8.608841E-10 -1.180110E-05  2.838173E-08  4.853564E-10 -2.108880E-12 -2.837758E-08  0.000000E+00  0.000000E+00  0.000000E+00  0.000000E+00  0.000000E+00  0.000000E+00  0.000000E+00  0.000000E+00  6.284966E+00  1.280552E-01 -5.549577E-04 -6.283661E+00                                                                                                                                                                                                                                                                                                                                                                                                                                                                                              
  3.750000E+02  1.250000E+02 -4.725000E+03  1.097377E-05  3.244100E-07 -1.122192E-09 -1.096897E-05  2.633586E-08  7.931975E-10 -2.744022E-12 -2.632391E-08  0.000000E+00  0.000000E+00  0.000000E+00  0.000000E+00  0.000000E+00  0.000000E+00  0.000000E+00  0.000000E+00  5.535832E+00  2.066034E-01 -6.991258E-04 -5.531976E+00                                                                                                                                                                                                                                                                                                                                                                                                                                                                                              
  6.250000E+02  1.250000E+02 -4.725000E+03  1.053742E-05  7.356931E-08 -1.434119E-09 -1.053716E-05  2.526203E-08  1.797767E-10 -3.503823E-12 -2.526140E-08  0.000000E+00  0.000000E+00  0.000000E+00  0.000000E+00  0.000000E+00  0.000000E+00  0.000000E+00  0.000000E+00  5.158037E+00  4.645474E-02 -8.766039E-04 -5.157828E+00                                                                                                                                                                                                                                                                                                                                                                                                                                                                                              
  7.600000E+02  1.250000E+02 -4.725000E+03  1.052792E-05 -1.218553E-07 -1.596397E-09 -1.052721E-05  2.524158E-08 -2.976992E-10 -3.900147E-12 -2.523982E-08  0.000000E+00  0.000000E+00  0.000000E+00  0.000000E+00  0.000000E+00  0.000000E+00  0.000000E+00  0.000000E+00  5.163338E+00 -7.466117E-02 -9.773148E-04 -5.162798E+00                                                                                                                                                                                                                                                                                                                                                                                                                                                                                              
  7.800000E+02  1.250000E+02 -4.725000E+03  1.053942E-05 -1.559289E-07 -1.622284E-09 -1.053827E-05  2.527042E-08 -3.809689E-10 -3.963537E-12 -2.526755E-08  0.000000E+00  0.000000E+00  0.000000E+00  0.000000E+00  0.000000E+00  0.000000E+00  0.000000E+00  0.000000E+00  5.174672E+00 -9.575468E-02 -9.940303E-04 -5.173786E+00                                                                                                                                                                                                                                                                                                                                                                                                                                                                                              
  8.000000E+02  1.250000E+02 -4.725000E+03  1.056064E-05 -1.905562E-07 -1.651472E-09 -1.055892E-05  2.532471E-08 -4.656337E-10 -4.035387E-12 -2.532043E-08  0.000000E+00  0.000000E+00  0.000000E+00  0.000000E+00  0.000000E+00  0.000000E+00  0.000000E+00  0.000000E+00  5.196156E+00 -1.177949E-01 -1.014152E-03 -5.194821E+00                                                                                                                                                                                                                                                                                                                                                                                                                                                                                              
  9.350000E+02  1.250000E+02 -4.725000E+03  1.085592E-05 -2.811197E-07 -1.845677E-09 -1.085228E-05  2.604540E-08 -6.871417E-10 -4.512235E-12 -2.603633E-08  0.000000E+00  0.000000E+00  0.000000E+00  0.000000E+00  0.000000E+00  0.000000E+00  0.000000E+00  0.000000E+00  5.437222E+00 -1.769373E-01 -1.145197E-03 -5.434342E+00                                                                                                                                                                                                                                                                                                                                                                                                                                                                                              
  1.185000E+03  1.250000E+02 -4.725000E+03  1.121858E-05 -3.904709E-07 -2.267447E-09 -1.121178E-05  2.694854E-08 -9.552173E-10 -5.547979E-12 -2.693160E-08  0.000000E+00  0.000000E+00  0.000000E+00  0.000000E+00  0.000000E+00  0.000000E+00  0.000000E+00  0.000000E+00  5.801015E+00 -2.526183E-01 -1.438187E-03 -5.795512E+00                                                                                                                                                                                                                                                                                                                                                                                                                                                                                              