Title="TOUGHREACT V3.30-OMP flowvector.tec: Liq & Gas Fluxes (kg/s/m^2), Pore Velocities (m/s), & Heat Fluxes (J/s/m2)"                                                                                                                                                                                                                                                                                                                                                                                                                                                                                                                                                                                                                                                                                                         
Variables= "X(m)"     "Y(m)"      "Z(m)"     "FluxLiq"   "FluxLiq_X"   "FluxLiq_Y"   "FluxLiq_Z"   "PorVelLiq"  "PorVelLiqX"  "PorVelLiqY"  "PorVelLiqZ"     "FluxGas"   "FluxGas_X"   "FluxGas_Y"   "FluxGas_Z"   "PorVelGas"  "PorVelGasX"  "PorVelGasY"  "PorVelGasZ"    "HeatFlux"  "HeatFlux_X"  "HeatFlux_Y"  "HeatFlux_Z"                                                                                                                                                                                                                                                                                                                                                                                                                                                                                                
Zone T= "6.70000000E+09 sec" I=     9 J=    10 K=    23 F=Point
  1.250000E+02  1.250000E+02 -5.425000E+03  1.059606E-06  2.884267E-08 -4.691230E-09 -1.059203E-06  3.651920E-09  9.993187E-11 -1.625334E-11 -3.650517E-09  0.000000E+00  0.000000E+00  0.000000E+00  0.000000E+00  0.000000E+00  0.000000E+00  0.000000E+00  0.000000E+00  7.863559E-01  2.223513E-02 -3.616626E-03 -7.860331E-01                                                                                                                                                                                                                                                                                                                                                                                                                                                                                              
  3.750000E+02  1.250000E+02 -5.425000E+03  1.032308E-06  4.078797E-08 -4.911763E-09 -1.031490E-06  3.558513E-09  1.413239E-10 -1.701948E-11 -3.555665E-09  0.000000E+00  0.000000E+00  0.000000E+00  0.000000E+00  0.000000E+00  0.000000E+00  0.000000E+00  0.000000E+00  7.658951E-01  3.144436E-02 -3.786899E-03 -7.652400E-01                                                                                                                                                                                                                                                                                                                                                                                                                                                                                              
  6.250000E+02  1.250000E+02 -5.425000E+03  1.011821E-06 -2.585798E-08 -5.294525E-09 -1.011477E-06  3.488226E-09 -8.959794E-11 -1.834678E-11 -3.487027E-09  0.000000E+00  0.000000E+00  0.000000E+00  0.000000E+00  0.000000E+00  0.000000E+00  0.000000E+00  0.000000E+00  7.505099E-01 -1.993847E-02 -4.082285E-03 -7.502339E-01                                                                                                                                                                                                                                                                                                                                                                                                                                                                                              
  7.600000E+02  1.250000E+02 -5.425000E+03  1.017778E-06 -7.914783E-08 -5.550394E-09 -1.014681E-06  3.508552E-09 -2.742483E-10 -1.923188E-11 -3.497764E-09  0.000000E+00  0.000000E+00  0.000000E+00  0.000000E+00  0.000000E+00  0.000000E+00  0.000000E+00  0.000000E+00  7.551118E-01 -6.102591E-02 -4.279619E-03 -7.526296E-01                                                                                                                                                                                                                                                                                                                                                                                                                                                                                              
  7.800000E+02  1.250000E+02 -5.425000E+03  1.018995E-06 -8.614185E-08 -5.588579E-09 -1.015332E-06  3.512719E-09 -2.984781E-10 -1.936394E-11 -3.499962E-09  0.000000E+00  0.000000E+00  0.000000E+00  0.000000E+00  0.000000E+00  0.000000E+00  0.000000E+00  0.000000E+00  7.560620E-01 -6.641881E-02 -4.309070E-03 -7.531266E-01                                                                                                                                                                                                                                                                                                                                                                                                                                                                                              
  8.000000E+02  1.250000E+02 -5.425000E+03  1.020423E-06 -9.293440E-08 -5.627000E-09 -1.016166E-06  3.517611E-09 -3.219959E-10 -1.949680E-11 -3.502789E-09  0.000000E+00  0.000000E+00  0.000000E+00  0.000000E+00  0.000000E+00  0.000000E+00  0.000000E+00  0.000000E+00  7.571891E-01 -7.165666E-02 -4.338709E-03 -7.537784E-01                                                                                                                                                                                                                                                                                                                                                                                                                                                                                              
  9.350000E+02  1.250000E+02 -5.425000E+03  1.030608E-06 -1.269341E-07 -5.887516E-09 -1.022744E-06  3.552453E-09 -4.396955E-10 -2.039736E-11 -3.525078E-09  0.000000E+00  0.000000E+00  0.000000E+00  0.000000E+00  0.000000E+00  0.000000E+00  0.000000E+00  0.000000E+00  7.651225E-01 -9.787215E-02 -4.539636E-03 -7.588233E-01                                                                                                                                                                                                                                                                                                                                                                                                                                                                                              
  1.185000E+03  1.250000E+02 -5.425000E+03  1.059621E-06 -1.429422E-07 -6.345747E-09 -1.049916E-06  3.651141E-09 -4.950334E-10 -2.197800E-11 -3.617360E-09  0.000000E+00  0.000000E+00  0.000000E+00  0.000000E+00  0.000000E+00  0.000000E+00  0.000000E+00  0.000000E+00  7.869646E-01 -1.102141E-01 -4.892947E-03 -7.791933E-01                                                                                                                                                                                                                                                                                                                                                                                                                                                                                              
  1.435000E+03  1.250000E+02 -5.425000E+03  1.081578E-06 -6.414517E-08 -6.638854E-09 -1.079654E-06  3.725293E-09 -2.221140E-10 -2.298723E-11 -3.718595E-09  0.000000E+00  0.000000E+00  0.000000E+00  0.000000E+00  0.000000E+00  0.000000E+00  0.000000E+00  0.000000E+00  8.030284E-01 -4.945804E-02 -5.118876E-03 -8.014876E-01                                                                                                                                                                                                                                                                                                                                                                                                                                                                                              
  1.250000E+02  1.250000E+02 -5.225000E+03  3.923354E-06  4.993697E-08 -4.155016E-09 -3.923034E-06  1.336636E-08  1.717122E-10 -1.428720E-11 -1.336525E-08  0.000000E+00  0.000000E+00  0.000000E+00  0.000000E+00  0.000000E+00  0.000000E+00  0.000000E+00  0.000000E+00  2.819262E+00  3.706733E-02 -3.084163E-03 -2.819016E+00                                                                                                                                                                                                                                                                                                                                                                                                                                                                                              
  3.750000E+02  1.250000E+02 -5.225000E+03  3.796047E-06  7.740172E-08 -4.401521E-09 -3.795255E-06  1.293559E-08  2.661676E-10 -1.513735E-11 -1.293284E-08  0.000000E+00  0.000000E+00  0.000000E+00  0.000000E+00  0.000000E+00  0.000000E+00  0.000000E+00  0.000000E+00  2.716310E+00  5.744820E-02 -3.266196E-03 -2.715701E+00                                                                                                                                                                                                                                                                                                                                                                                                                                                                                              
  6.250000E+02  1.250000E+02 -5.225000E+03  3.708777E-06 -1.382904E-08 -4.805086E-09 -3.708749E-06  1.263970E-08 -4.756148E-11 -1.652666E-11 -1.263960E-08  0.000000E+00  0.000000E+00  0.000000E+00  0.000000E+00  0.000000E+00  0.000000E+00  0.000000E+00  0.000000E+00  2.646245E+00 -1.025566E-02 -3.564938E-03 -2.646222E+00                                                                                                                                                                                                                                                                                                                                                                                                                                                                                              
  7.600000E+02  1.250000E+02 -5.225000E+03  3.721362E-06 -8.766258E-08 -5.067477E-09 -3.720326E-06  1.268139E-08 -3.014850E-10 -1.742758E-11 -1.267779E-08  0.000000E+00  0.000000E+00  0.000000E+00  0.000000E+00  0.000000E+00  0.000000E+00  0.000000E+00  0.000000E+00  2.655883E+00 -6.503956E-02 -3.759702E-03 -2.655084E+00                                                                                                                                                                                                                                                                                                                                                                                                                                                                                              
  7.800000E+02  1.250000E+02 -5.225000E+03  3.724397E-06 -9.769077E-08 -5.106703E-09 -3.723112E-06  1.269160E-08 -3.359684E-10 -1.756226E-11 -1.268714E-08  0.000000E+00  0.000000E+00  0.000000E+00  0.000000E+00  0.000000E+00  0.000000E+00  0.000000E+00  0.000000E+00  2.658452E+00 -7.248379E-02 -3.788873E-03 -2.657461E+00                                                                                                                                                                                                                                                                                                                                                                                                                                                                                              
  8.000000E+02  1.250000E+02 -5.225000E+03  3.728879E-06 -1.073870E-07 -5.146298E-09 -3.727329E-06  1.270687E-08 -3.692931E-10 -1.769822E-11 -1.270149E-08  0.000000E+00  0.000000E+00  0.000000E+00  0.000000E+00  0.000000E+00  0.000000E+00  0.000000E+00  0.000000E+00  2.662622E+00 -7.968913E-02 -3.818417E-03 -2.661426E+00                                                                                                                                                                                                                                                                                                                                                                                                                                                                                              
  9.350000E+02  1.250000E+02 -5.225000E+03  3.760759E-06 -1.539300E-07 -5.414489E-09 -3.757604E-06  1.281475E-08 -5.292054E-10 -1.861871E-11 -1.280380E-08  0.000000E+00  0.000000E+00  0.000000E+00  0.000000E+00  0.000000E+00  0.000000E+00  0.000000E+00  0.000000E+00  2.690466E+00 -1.142556E-01 -4.018275E-03 -2.688036E+00                                                                                                                                                                                                                                                                                                                                                                                                                                                                                              
  1.185000E+03  1.250000E+02 -5.225000E+03  3.869834E-06 -1.836156E-07 -5.897704E-09 -3.865471E-06  1.318085E-08 -6.310882E-10 -2.027284E-11 -1.316572E-08  0.000000E+00  0.000000E+00  0.000000E+00  0.000000E+00  0.000000E+00  0.000000E+00  0.000000E+00  0.000000E+00  2.777009E+00 -1.363194E-01 -4.378032E-03 -2.773658E+00                                                                                                                                                                                                                                                                                                                                                                                                                                                                                              
  1.435000E+03  1.250000E+02 -5.225000E+03  3.999073E-06 -8.575074E-08 -6.221927E-09 -3.998148E-06  1.361527E-08 -2.946755E-10 -2.138053E-11 -1.361207E-08  0.000000E+00  0.000000E+00  0.000000E+00  0.000000E+00  0.000000E+00  0.000000E+00  0.000000E+00  0.000000E+00  2.880333E+00 -6.367212E-02 -4.619967E-03 -2.879626E+00                                                                                                                                                                                                                                                                                                                                                                                                                                                                                              
  1.250000E+02  1.250000E+02 -4.975000E+03  7.659666E-06  1.327685E-07 -2.714987E-09 -7.658514E-06  2.551954E-08  4.488872E-10 -9.182099E-12 -2.551559E-08  0.000000E+00  0.000000E+00  0.000000E+00  0.000000E+00  0.000000E+00  0.000000E+00  0.000000E+00  0.000000E+00  5.113549E+00  9.427803E-02 -1.927470E-03 -5.112679E+00                                                                                                                                                                                                                                                                                                                                                                                                                                                                                              
  3.750000E+02  1.250000E+02 -4.975000E+03  7.283037E-06  2.154144E-07 -3.062106E-09 -7.279850E-06  2.425694E-08  7.283096E-10 -1.035494E-11 -2.424600E-08  0.000000E+00  0.000000E+00  0.000000E+00  0.000000E+00  0.000000E+00  0.000000E+00  0.000000E+00  0.000000E+00  4.751991E+00  1.526226E-01 -2.161245E-03 -4.749538E+00                                                                                                                                                                                                                                                                                                                                                                                                                                                                                              
  6.250000E+02  1.250000E+02 -4.975000E+03  7.062741E-06  2.918696E-08 -3.532059E-09 -7.062679E-06  2.351776E-08  9.867701E-11 -1.194296E-11 -2.351755E-08  0.000000E+00  0.000000E+00  0.000000E+00  0.000000E+00  0.000000E+00  0.000000E+00  0.000000E+00  0.000000E+00  4.546133E+00  2.074966E-02 -2.483123E-03 -4.546085E+00                                                                                                                                                                                                                                                                                                                                                                                                                                                                                              
  7.600000E+02  1.250000E+02 -4.975000E+03  7.079490E-06 -1.178575E-07 -3.814891E-09 -7.078508E-06  2.357226E-08 -3.984776E-10 -1.289814E-11 -2.356889E-08  0.000000E+00  0.000000E+00  0.000000E+00  0.000000E+00  0.000000E+00  0.000000E+00  0.000000E+00  0.000000E+00  4.561738E+00 -8.289850E-02 -2.682782E-03 -4.560984E+00                                                                                                                                                                                                                                                                                                                                                                                                                                                                                              
  7.800000E+02  1.250000E+02 -4.975000E+03  7.086755E-06 -1.395172E-07 -3.857784E-09 -7.085380E-06  2.359669E-08 -4.717125E-10 -1.304316E-11 -2.359197E-08  0.000000E+00  0.000000E+00  0.000000E+00  0.000000E+00  0.000000E+00  0.000000E+00  0.000000E+00  0.000000E+00  4.569105E+00 -9.818582E-02 -2.713488E-03 -4.568050E+00                                                                                                                                                                                                                                                                                                                                                                                                                                                                                              
  8.000000E+02  1.250000E+02 -4.975000E+03  7.101907E-06 -1.602915E-07 -3.902186E-09 -7.100097E-06  2.364827E-08 -5.419489E-10 -1.319367E-11 -2.364205E-08  0.000000E+00  0.000000E+00  0.000000E+00  0.000000E+00  0.000000E+00  0.000000E+00  0.000000E+00  0.000000E+00  4.585325E+00 -1.129866E-01 -2.746069E-03 -4.583932E+00                                                                                                                                                                                                                                                                                                                                                                                                                                                                                              
  9.350000E+02  1.250000E+02 -4.975000E+03  7.197269E-06 -2.490411E-07 -4.200972E-09 -7.192958E-06  2.397057E-08 -8.418467E-10 -1.420519E-11 -2.395578E-08  0.000000E+00  0.000000E+00  0.000000E+00  0.000000E+00  0.000000E+00  0.000000E+00  0.000000E+00  0.000000E+00  4.683713E+00 -1.762085E-01 -2.963841E-03 -4.680396E+00                                                                                                                                                                                                                                                                                                                                                                                                                                                                                              
  1.185000E+03  1.250000E+02 -4.975000E+03  7.429369E-06 -3.358066E-07 -4.792376E-09 -7.421774E-06  2.474500E-08 -1.134921E-09 -1.620135E-11 -2.471896E-08  0.000000E+00  0.000000E+00  0.000000E+00  0.000000E+00  0.000000E+00  0.000000E+00  0.000000E+00  0.000000E+00  4.908414E+00 -2.385614E-01 -3.395252E-03 -4.902612E+00                                                                                                                                                                                                                                                                                                                                                                                                                                                                                              
  1.435000E+03  1.250000E+02 -4.975000E+03  7.804074E-06 -1.719384E-07 -5.278562E-09 -7.802178E-06  2.599608E-08 -5.810432E-10 -1.784258E-11 -2.598958E-08  0.000000E+00  0.000000E+00  0.000000E+00  0.000000E+00  0.000000E+00  0.000000E+00  0.000000E+00  0.000000E+00  5.271559E+00 -1.224572E-01 -3.759120E-03 -5.270135E+00                                                                                                                                                                                                                                                                                                                                                                                                                                                                                              
  1.250000E+02  1.250000E+02 -4.725000E+03  1.173669E-05  2.229160E-07 -5.957889E-10 -1.173457E-05  3.778374E-08  7.286801E-10 -1.950848E-12 -3.777671E-08  0.000000E+00  0.000000E+00  0.000000E+00  0.000000E+00  0.000000E+00  0.000000E+00  0.000000E+00  0.000000E+00  6.330971E+00  1.433112E-01 -3.825234E-04 -6.329348E+00                                                                                                                                                                                                                                                                                                                                                                                                                                                                                              
  3.750000E+02  1.250000E+02 -4.725000E+03  1.086630E-05  3.463314E-07 -1.019379E-09 -1.086078E-05  3.489163E-08  1.131482E-09 -3.330156E-12 -3.487328E-08  0.000000E+00  0.000000E+00  0.000000E+00  0.000000E+00  0.000000E+00  0.000000E+00  0.000000E+00  0.000000E+00  5.481921E+00  2.198802E-01 -6.318691E-04 -5.477509E+00                                                                                                                                                                                                                                                                                                                                                                                                                                                                                              
  6.250000E+02  1.250000E+02 -4.725000E+03  1.048951E-05  7.663446E-08 -1.391544E-09 -1.048923E-05  3.363592E-08  2.501758E-10 -4.540225E-12 -3.363499E-08  0.000000E+00  0.000000E+00  0.000000E+00  0.000000E+00  0.000000E+00  0.000000E+00  0.000000E+00  0.000000E+00  5.120249E+00  4.811457E-02 -8.450175E-04 -5.120023E+00                                                                                                                                                                                                                                                                                                                                                                                                                                                                                              
  7.600000E+02  1.250000E+02 -4.725000E+03  1.047485E-05 -1.095636E-07 -1.582083E-09 -1.047428E-05  3.359183E-08 -3.574729E-10 -5.161922E-12 -3.358993E-08  0.000000E+00  0.000000E+00  0.000000E+00  0.000000E+00  0.000000E+00  0.000000E+00  0.000000E+00  0.000000E+00  5.122269E+00 -6.669679E-02 -9.621543E-04 -5.121834E+00                                                                                                                                                                                                                                                                                                                                                                                                                                                                                              
  7.800000E+02  1.250000E+02 -4.725000E+03  1.048370E-05 -1.416430E-07 -1.612199E-09 -1.048274E-05  3.362204E-08 -4.621781E-10 -5.260455E-12 -3.361886E-08  0.000000E+00  0.000000E+00  0.000000E+00  0.000000E+00  0.000000E+00  0.000000E+00  0.000000E+00  0.000000E+00  5.132289E+00 -8.641975E-02 -9.813236E-04 -5.131562E+00                                                                                                                                                                                                                                                                                                                                                                                                                                                                                              
  8.000000E+02  1.250000E+02 -4.725000E+03  1.050066E-05 -1.742737E-07 -1.645419E-09 -1.049921E-05  3.368095E-08 -5.687916E-10 -5.369692E-12 -3.367614E-08  0.000000E+00  0.000000E+00  0.000000E+00  0.000000E+00  0.000000E+00  0.000000E+00  0.000000E+00  0.000000E+00  5.151388E+00 -1.071368E-01 -1.003691E-03 -5.150274E+00                                                                                                                                                                                                                                                                                                                                                                                                                                                                                              
  9.350000E+02  1.250000E+02 -4.725000E+03  1.076049E-05 -2.783506E-07 -1.872687E-09 -1.075689E-05  3.453992E-08 -9.090627E-10 -6.116391E-12 -3.452796E-08  0.000000E+00  0.000000E+00  0.000000E+00  0.000000E+00  0.000000E+00  0.000000E+00  0.000000E+00  0.000000E+00  5.384686E+00 -1.745442E-01 -1.156104E-03 -5.381856E+00                                                                                                                                                                                                                                                                                                                                                                                                                                                                                              
  1.185000E+03  1.250000E+02 -4.725000E+03  1.106657E-05 -4.462319E-07 -2.435923E-09 -1.105757E-05  3.557593E-08 -1.459003E-09 -7.965771E-12 -3.554600E-08  0.000000E+00  0.000000E+00  0.000000E+00  0.000000E+00  0.000000E+00  0.000000E+00  0.000000E+00  0.000000E+00  5.736872E+00 -2.878029E-01 -1.538582E-03 -5.729648E+00                                                                                                                                                                                                                                                                                                                                                                                                                                                                                              