Title="TOUGHREACT V3.30-OMP flowvector.tec: Liq & Gas Fluxes (kg/s/m^2), Pore Velocities (m/s), & Heat Fluxes (J/s/m2)"                                                                                                                                                                                                                                                                                                                                                                                                                                                                                                                                                                                                                                                                                                         
Variables= "X(m)"     "Y(m)"      "Z(m)"     "FluxLiq"   "FluxLiq_X"   "FluxLiq_Y"   "FluxLiq_Z"   "PorVelLiq"  "PorVelLiqX"  "PorVelLiqY"  "PorVelLiqZ"     "FluxGas"   "FluxGas_X"   "FluxGas_Y"   "FluxGas_Z"   "PorVelGas"  "PorVelGasX"  "PorVelGasY"  "PorVelGasZ"    "HeatFlux"  "HeatFlux_X"  "HeatFlux_Y"  "HeatFlux_Z"                                                                                                                                                                                                                                                                                                                                                                                                                                                                                                
Zone T= "5.00000000E-02 sec" I=     9 J=    10 K=    23 F=Point
  1.250000E+02  1.250000E+02 -5.425000E+03  3.538693E-07  0.000000E+00  0.000000E+00  3.538693E-07  1.999923E-09  0.000000E+00  0.000000E+00  1.999923E-09  0.000000E+00  0.000000E+00  0.000000E+00  0.000000E+00  0.000000E+00  0.000000E+00  0.000000E+00  0.000000E+00  3.366245E-01  0.000000E+00  0.000000E+00  3.366245E-01                                                                                                                                                                                                                                                                                                                                                                                                                                                                                              
  3.750000E+02  1.250000E+02 -5.425000E+03  3.538693E-07  0.000000E+00  0.000000E+00  3.538693E-07  1.999923E-09  0.000000E+00  0.000000E+00  1.999923E-09  0.000000E+00  0.000000E+00  0.000000E+00  0.000000E+00  0.000000E+00  0.000000E+00  0.000000E+00  0.000000E+00  3.366245E-01  0.000000E+00  0.000000E+00  3.366245E-01                                                                                                                                                                                                                                                                                                                                                                                                                                                                                              
  6.250000E+02  1.250000E+02 -5.425000E+03  3.538693E-07  0.000000E+00  0.000000E+00  3.538693E-07  1.999923E-09  0.000000E+00  0.000000E+00  1.999923E-09  0.000000E+00  0.000000E+00  0.000000E+00  0.000000E+00  0.000000E+00  0.000000E+00  0.000000E+00  0.000000E+00  3.366245E-01  0.000000E+00  0.000000E+00  3.366245E-01                                                                                                                                                                                                                                                                                                                                                                                                                                                                                              
  7.600000E+02  1.250000E+02 -5.425000E+03  3.538693E-07  0.000000E+00  0.000000E+00  3.538693E-07  1.999923E-09  0.000000E+00  0.000000E+00  1.999923E-09  0.000000E+00  0.000000E+00  0.000000E+00  0.000000E+00  0.000000E+00  0.000000E+00  0.000000E+00  0.000000E+00  3.366245E-01  0.000000E+00  0.000000E+00  3.366245E-01                                                                                                                                                                                                                                                                                                                                                                                                                                                                                              
  7.800000E+02  1.250000E+02 -5.425000E+03  3.538693E-07  0.000000E+00  0.000000E+00  3.538693E-07  1.999923E-09  0.000000E+00  0.000000E+00  1.999923E-09  0.000000E+00  0.000000E+00  0.000000E+00  0.000000E+00  0.000000E+00  0.000000E+00  0.000000E+00  0.000000E+00  3.366245E-01  0.000000E+00  0.000000E+00  3.366245E-01                                                                                                                                                                                                                                                                                                                                                                                                                                                                                              
  8.000000E+02  1.250000E+02 -5.425000E+03  3.538693E-07  0.000000E+00  0.000000E+00  3.538693E-07  1.999923E-09  0.000000E+00  0.000000E+00  1.999923E-09  0.000000E+00  0.000000E+00  0.000000E+00  0.000000E+00  0.000000E+00  0.000000E+00  0.000000E+00  0.000000E+00  3.366245E-01  0.000000E+00  0.000000E+00  3.366245E-01                                                                                                                                                                                                                                                                                                                                                                                                                                                                                              
  9.350000E+02  1.250000E+02 -5.425000E+03  3.538693E-07  0.000000E+00  0.000000E+00  3.538693E-07  1.999923E-09  0.000000E+00  0.000000E+00  1.999923E-09  0.000000E+00  0.000000E+00  0.000000E+00  0.000000E+00  0.000000E+00  0.000000E+00  0.000000E+00  0.000000E+00  3.366245E-01  0.000000E+00  0.000000E+00  3.366245E-01                                                                                                                                                                                                                                                                                                                                                                                                                                                                                              
  1.185000E+03  1.250000E+02 -5.425000E+03  3.538693E-07  0.000000E+00  0.000000E+00  3.538693E-07  1.999923E-09  0.000000E+00  0.000000E+00  1.999923E-09  0.000000E+00  0.000000E+00  0.000000E+00  0.000000E+00  0.000000E+00  0.000000E+00  0.000000E+00  0.000000E+00  3.366245E-01  0.000000E+00  0.000000E+00  3.366245E-01                                                                                                                                                                                                                                                                                                                                                                                                                                                                                              
  1.435000E+03  1.250000E+02 -5.425000E+03  3.538693E-07  0.000000E+00  0.000000E+00  3.538693E-07  1.999923E-09  0.000000E+00  0.000000E+00  1.999923E-09  0.000000E+00  0.000000E+00  0.000000E+00  0.000000E+00  0.000000E+00  0.000000E+00  0.000000E+00  0.000000E+00  3.366245E-01  0.000000E+00  0.000000E+00  3.366245E-01                                                                                                                                                                                                                                                                                                                                                                                                                                                                                              
  1.250000E+02  1.250000E+02 -5.225000E+03  6.774185E-07  0.000000E+00  0.000000E+00  6.774185E-07  3.813497E-09  0.000000E+00  0.000000E+00  3.813497E-09  0.000000E+00  0.000000E+00  0.000000E+00  0.000000E+00  0.000000E+00  0.000000E+00  0.000000E+00  0.000000E+00  6.336455E-01  0.000000E+00  0.000000E+00  6.336455E-01                                                                                                                                                                                                                                                                                                                                                                                                                                                                                              
  3.750000E+02  1.250000E+02 -5.225000E+03  6.774185E-07  0.000000E+00  0.000000E+00  6.774185E-07  3.813497E-09  0.000000E+00  0.000000E+00  3.813497E-09  0.000000E+00  0.000000E+00  0.000000E+00  0.000000E+00  0.000000E+00  0.000000E+00  0.000000E+00  0.000000E+00  6.336455E-01  0.000000E+00  0.000000E+00  6.336455E-01                                                                                                                                                                                                                                                                                                                                                                                                                                                                                              
  6.250000E+02  1.250000E+02 -5.225000E+03  6.774185E-07  0.000000E+00  0.000000E+00  6.774185E-07  3.813497E-09  0.000000E+00  0.000000E+00  3.813497E-09  0.000000E+00  0.000000E+00  0.000000E+00  0.000000E+00  0.000000E+00  0.000000E+00  0.000000E+00  0.000000E+00  6.336455E-01  0.000000E+00  0.000000E+00  6.336455E-01                                                                                                                                                                                                                                                                                                                                                                                                                                                                                              
  7.600000E+02  1.250000E+02 -5.225000E+03  6.774185E-07  0.000000E+00  0.000000E+00  6.774185E-07  3.813497E-09  0.000000E+00  0.000000E+00  3.813497E-09  0.000000E+00  0.000000E+00  0.000000E+00  0.000000E+00  0.000000E+00  0.000000E+00  0.000000E+00  0.000000E+00  6.336455E-01  0.000000E+00  0.000000E+00  6.336455E-01                                                                                                                                                                                                                                                                                                                                                                                                                                                                                              
  7.800000E+02  1.250000E+02 -5.225000E+03  6.774185E-07  0.000000E+00  0.000000E+00  6.774185E-07  3.813497E-09  0.000000E+00  0.000000E+00  3.813497E-09  0.000000E+00  0.000000E+00  0.000000E+00  0.000000E+00  0.000000E+00  0.000000E+00  0.000000E+00  0.000000E+00  6.336455E-01  0.000000E+00  0.000000E+00  6.336455E-01                                                                                                                                                                                                                                                                                                                                                                                                                                                                                              
  8.000000E+02  1.250000E+02 -5.225000E+03  6.774185E-07  0.000000E+00  0.000000E+00  6.774185E-07  3.813497E-09  0.000000E+00  0.000000E+00  3.813497E-09  0.000000E+00  0.000000E+00  0.000000E+00  0.000000E+00  0.000000E+00  0.000000E+00  0.000000E+00  0.000000E+00  6.336455E-01  0.000000E+00  0.000000E+00  6.336455E-01                                                                                                                                                                                                                                                                                                                                                                                                                                                                                              
  9.350000E+02  1.250000E+02 -5.225000E+03  6.774185E-07  0.000000E+00  0.000000E+00  6.774185E-07  3.813497E-09  0.000000E+00  0.000000E+00  3.813497E-09  0.000000E+00  0.000000E+00  0.000000E+00  0.000000E+00  0.000000E+00  0.000000E+00  0.000000E+00  0.000000E+00  6.336455E-01  0.000000E+00  0.000000E+00  6.336455E-01                                                                                                                                                                                                                                                                                                                                                                                                                                                                                              
  1.185000E+03  1.250000E+02 -5.225000E+03  6.774185E-07  0.000000E+00  0.000000E+00  6.774185E-07  3.813497E-09  0.000000E+00  0.000000E+00  3.813497E-09  0.000000E+00  0.000000E+00  0.000000E+00  0.000000E+00  0.000000E+00  0.000000E+00  0.000000E+00  0.000000E+00  6.336455E-01  0.000000E+00  0.000000E+00  6.336455E-01                                                                                                                                                                                                                                                                                                                                                                                                                                                                                              
  1.435000E+03  1.250000E+02 -5.225000E+03  6.774185E-07  0.000000E+00  0.000000E+00  6.774185E-07  3.813497E-09  0.000000E+00  0.000000E+00  3.813497E-09  0.000000E+00  0.000000E+00  0.000000E+00  0.000000E+00  0.000000E+00  0.000000E+00  0.000000E+00  0.000000E+00  6.336455E-01  0.000000E+00  0.000000E+00  6.336455E-01                                                                                                                                                                                                                                                                                                                                                                                                                                                                                              
  1.250000E+02  1.250000E+02 -4.975000E+03  6.132779E-07  0.000000E+00  0.000000E+00  6.132779E-07  3.423233E-09  0.000000E+00  0.000000E+00  3.423233E-09  0.000000E+00  0.000000E+00  0.000000E+00  0.000000E+00  0.000000E+00  0.000000E+00  0.000000E+00  0.000000E+00  5.509770E-01  0.000000E+00  0.000000E+00  5.509770E-01                                                                                                                                                                                                                                                                                                                                                                                                                                                                                              
  3.750000E+02  1.250000E+02 -4.975000E+03  6.132779E-07  0.000000E+00  0.000000E+00  6.132779E-07  3.423233E-09  0.000000E+00  0.000000E+00  3.423233E-09  0.000000E+00  0.000000E+00  0.000000E+00  0.000000E+00  0.000000E+00  0.000000E+00  0.000000E+00  0.000000E+00  5.509770E-01  0.000000E+00  0.000000E+00  5.509770E-01                                                                                                                                                                                                                                                                                                                                                                                                                                                                                              
  6.250000E+02  1.250000E+02 -4.975000E+03  6.132779E-07  0.000000E+00  0.000000E+00  6.132779E-07  3.423233E-09  0.000000E+00  0.000000E+00  3.423233E-09  0.000000E+00  0.000000E+00  0.000000E+00  0.000000E+00  0.000000E+00  0.000000E+00  0.000000E+00  0.000000E+00  5.509770E-01  0.000000E+00  0.000000E+00  5.509770E-01                                                                                                                                                                                                                                                                                                                                                                                                                                                                                              
  7.600000E+02  1.250000E+02 -4.975000E+03  6.132779E-07  0.000000E+00  0.000000E+00  6.132779E-07  3.423233E-09  0.000000E+00  0.000000E+00  3.423233E-09  0.000000E+00  0.000000E+00  0.000000E+00  0.000000E+00  0.000000E+00  0.000000E+00  0.000000E+00  0.000000E+00  5.509770E-01  0.000000E+00  0.000000E+00  5.509770E-01                                                                                                                                                                                                                                                                                                                                                                                                                                                                                              
  7.800000E+02  1.250000E+02 -4.975000E+03  6.132779E-07  0.000000E+00  0.000000E+00  6.132779E-07  3.423233E-09  0.000000E+00  0.000000E+00  3.423233E-09  0.000000E+00  0.000000E+00  0.000000E+00  0.000000E+00  0.000000E+00  0.000000E+00  0.000000E+00  0.000000E+00  5.509770E-01  0.000000E+00  0.000000E+00  5.509770E-01                                                                                                                                                                                                                                                                                                                                                                                                                                                                                              
  8.000000E+02  1.250000E+02 -4.975000E+03  6.132779E-07  0.000000E+00  0.000000E+00  6.132779E-07  3.423233E-09  0.000000E+00  0.000000E+00  3.423233E-09  0.000000E+00  0.000000E+00  0.000000E+00  0.000000E+00  0.000000E+00  0.000000E+00  0.000000E+00  0.000000E+00  5.509770E-01  0.000000E+00  0.000000E+00  5.509770E-01                                                                                                                                                                                                                                                                                                                                                                                                                                                                                              
  9.350000E+02  1.250000E+02 -4.975000E+03  6.132779E-07  0.000000E+00  0.000000E+00  6.132779E-07  3.423233E-09  0.000000E+00  0.000000E+00  3.423233E-09  0.000000E+00  0.000000E+00  0.000000E+00  0.000000E+00  0.000000E+00  0.000000E+00  0.000000E+00  0.000000E+00  5.509770E-01  0.000000E+00  0.000000E+00  5.509770E-01                                                                                                                                                                                                                                                                                                                                                                                                                                                                                              
  1.185000E+03  1.250000E+02 -4.975000E+03  6.132779E-07  0.000000E+00  0.000000E+00  6.132779E-07  3.423233E-09  0.000000E+00  0.000000E+00  3.423233E-09  0.000000E+00  0.000000E+00  0.000000E+00  0.000000E+00  0.000000E+00  0.000000E+00  0.000000E+00  0.000000E+00  5.509770E-01  0.000000E+00  0.000000E+00  5.509770E-01                                                                                                                                                                                                                                                                                                                                                                                                                                                                                              
  1.435000E+03  1.250000E+02 -4.975000E+03  6.132779E-07  0.000000E+00  0.000000E+00  6.132779E-07  3.423233E-09  0.000000E+00  0.000000E+00  3.423233E-09  0.000000E+00  0.000000E+00  0.000000E+00  0.000000E+00  0.000000E+00  0.000000E+00  0.000000E+00  0.000000E+00  5.509770E-01  0.000000E+00  0.000000E+00  5.509770E-01                                                                                                                                                                                                                                                                                                                                                                                                                                                                                              
  1.250000E+02  1.250000E+02 -4.725000E+03  6.543015E-07  0.000000E+00  0.000000E+00  6.543015E-07  3.620365E-09  0.000000E+00  0.000000E+00  3.620365E-09  0.000000E+00  0.000000E+00  0.000000E+00  0.000000E+00  0.000000E+00  0.000000E+00  0.000000E+00  0.000000E+00  5.583548E-01  0.000000E+00  0.000000E+00  5.583548E-01                                                                                                                                                                                                                                                                                                                                                                                                                                                                                              
  3.750000E+02  1.250000E+02 -4.725000E+03  6.543015E-07  0.000000E+00  0.000000E+00  6.543015E-07  3.620365E-09  0.000000E+00  0.000000E+00  3.620365E-09  0.000000E+00  0.000000E+00  0.000000E+00  0.000000E+00  0.000000E+00  0.000000E+00  0.000000E+00  0.000000E+00  5.583548E-01  0.000000E+00  0.000000E+00  5.583548E-01                                                                                                                                                                                                                                                                                                                                                                                                                                                                                              
  6.250000E+02  1.250000E+02 -4.725000E+03  6.543028E-07  1.322922E-19  0.000000E+00  6.543028E-07  3.620372E-09  7.317910E-22  0.000000E+00  3.620372E-09  0.000000E+00  0.000000E+00  0.000000E+00  0.000000E+00  0.000000E+00  0.000000E+00  0.000000E+00  0.000000E+00  5.583558E-01  1.103888E-13  0.000000E+00  5.583558E-01                                                                                                                                                                                                                                                                                                                                                                                                                                                                                              
  7.600000E+02  1.250000E+02 -4.725000E+03  6.544060E-07  1.322922E-19  0.000000E+00  6.544060E-07  3.620941E-09  7.317910E-22  0.000000E+00  3.620941E-09  0.000000E+00  0.000000E+00  0.000000E+00  0.000000E+00  0.000000E+00  0.000000E+00  0.000000E+00  0.000000E+00  5.584419E-01  1.103888E-13  0.000000E+00  5.584419E-01                                                                                                                                                                                                                                                                                                                                                                                                                                                                                              
  7.800000E+02  1.250000E+02 -4.725000E+03  6.544099E-07  0.000000E+00  0.000000E+00  6.544099E-07  3.620963E-09  0.000000E+00  0.000000E+00  3.620963E-09  0.000000E+00  0.000000E+00  0.000000E+00  0.000000E+00  0.000000E+00  0.000000E+00  0.000000E+00  0.000000E+00  5.584452E-01  0.000000E+00  0.000000E+00  5.584452E-01                                                                                                                                                                                                                                                                                                                                                                                                                                                                                              
  8.000000E+02  1.250000E+02 -4.725000E+03  6.544060E-07 -1.322922E-19  0.000000E+00  6.544060E-07  3.620941E-09 -7.317910E-22  0.000000E+00  3.620941E-09  0.000000E+00  0.000000E+00  0.000000E+00  0.000000E+00  0.000000E+00  0.000000E+00  0.000000E+00  0.000000E+00  5.584419E-01 -1.103888E-13  0.000000E+00  5.584419E-01                                                                                                                                                                                                                                                                                                                                                                                                                                                                                              
  9.350000E+02  1.250000E+02 -4.725000E+03  6.543028E-07 -1.322922E-19  0.000000E+00  6.543028E-07  3.620372E-09 -7.317910E-22  0.000000E+00  3.620372E-09  0.000000E+00  0.000000E+00  0.000000E+00  0.000000E+00  0.000000E+00  0.000000E+00  0.000000E+00  0.000000E+00  5.583558E-01 -1.103888E-13  0.000000E+00  5.583558E-01                                                                                                                                                                                                                                                                                                                                                                                                                                                                                              
  1.185000E+03  1.250000E+02 -4.725000E+03  6.543015E-07  0.000000E+00  0.000000E+00  6.543015E-07  3.620365E-09  0.000000E+00  0.000000E+00  3.620365E-09  0.000000E+00  0.000000E+00  0.000000E+00  0.000000E+00  0.000000E+00  0.000000E+00  0.000000E+00  0.000000E+00  5.583548E-01  0.000000E+00  0.000000E+00  5.583548E-01                                                                                                                                                                                                                                                                                                                                                                                                                                                                                              