Title="TOUGHREACT V3.30-OMP flowvector.tec: Liq & Gas Fluxes (kg/s/m^2), Pore Velocities (m/s), & Heat Fluxes (J/s/m2)"                                                                                                                                                                                                                                                                                                                                                                                                                                                                                                                                                                                                                                                                                                         
Variables= "X(m)"     "Y(m)"      "Z(m)"     "FluxLiq"   "FluxLiq_X"   "FluxLiq_Y"   "FluxLiq_Z"   "PorVelLiq"  "PorVelLiqX"  "PorVelLiqY"  "PorVelLiqZ"     "FluxGas"   "FluxGas_X"   "FluxGas_Y"   "FluxGas_Z"   "PorVelGas"  "PorVelGasX"  "PorVelGasY"  "PorVelGasZ"    "HeatFlux"  "HeatFlux_X"  "HeatFlux_Y"  "HeatFlux_Z"                                                                                                                                                                                                                                                                                                                                                                                                                                                                                                
Zone T= "3.00000000E+09 sec" I=     9 J=    10 K=    23 F=Point
  1.250000E+02  1.250000E+02 -5.425000E+03  1.083831E-06  0.000000E+00  0.000000E+00  1.083831E-06  6.360279E-09  0.000000E+00  0.000000E+00  6.360279E-09  0.000000E+00  0.000000E+00  0.000000E+00  0.000000E+00  0.000000E+00  0.000000E+00  0.000000E+00  0.000000E+00  1.170205E+00  0.000000E+00  0.000000E+00  1.170205E+00                                                                                                                                                                                                                                                                                                                                                                                                                                                                                              
  3.750000E+02  1.250000E+02 -5.425000E+03  1.083832E-06  0.000000E+00  0.000000E+00  1.083832E-06  6.360282E-09  0.000000E+00  0.000000E+00  6.360282E-09  0.000000E+00  0.000000E+00  0.000000E+00  0.000000E+00  0.000000E+00  0.000000E+00  0.000000E+00  0.000000E+00  1.170206E+00  0.000000E+00  0.000000E+00  1.170206E+00                                                                                                                                                                                                                                                                                                                                                                                                                                                                                              
  6.250000E+02  1.250000E+02 -5.425000E+03  1.083832E-06  0.000000E+00  0.000000E+00  1.083832E-06  6.360285E-09  0.000000E+00  0.000000E+00  6.360285E-09  0.000000E+00  0.000000E+00  0.000000E+00  0.000000E+00  0.000000E+00  0.000000E+00  0.000000E+00  0.000000E+00  1.170207E+00  0.000000E+00  0.000000E+00  1.170207E+00                                                                                                                                                                                                                                                                                                                                                                                                                                                                                              
  7.600000E+02  1.250000E+02 -5.425000E+03  1.083832E-06  0.000000E+00  0.000000E+00  1.083832E-06  6.360285E-09  0.000000E+00  0.000000E+00  6.360285E-09  0.000000E+00  0.000000E+00  0.000000E+00  0.000000E+00  0.000000E+00  0.000000E+00  0.000000E+00  0.000000E+00  1.170207E+00  0.000000E+00  0.000000E+00  1.170207E+00                                                                                                                                                                                                                                                                                                                                                                                                                                                                                              
  7.800000E+02  1.250000E+02 -5.425000E+03  1.083832E-06  0.000000E+00  0.000000E+00  1.083832E-06  6.360285E-09  0.000000E+00  0.000000E+00  6.360285E-09  0.000000E+00  0.000000E+00  0.000000E+00  0.000000E+00  0.000000E+00  0.000000E+00  0.000000E+00  0.000000E+00  1.170207E+00  0.000000E+00  0.000000E+00  1.170207E+00                                                                                                                                                                                                                                                                                                                                                                                                                                                                                              
  8.000000E+02  1.250000E+02 -5.425000E+03  1.083832E-06  0.000000E+00  0.000000E+00  1.083832E-06  6.360285E-09  0.000000E+00  0.000000E+00  6.360285E-09  0.000000E+00  0.000000E+00  0.000000E+00  0.000000E+00  0.000000E+00  0.000000E+00  0.000000E+00  0.000000E+00  1.170207E+00  0.000000E+00  0.000000E+00  1.170207E+00                                                                                                                                                                                                                                                                                                                                                                                                                                                                                              
  9.350000E+02  1.250000E+02 -5.425000E+03  1.083832E-06  0.000000E+00  0.000000E+00  1.083832E-06  6.360285E-09  0.000000E+00  0.000000E+00  6.360285E-09  0.000000E+00  0.000000E+00  0.000000E+00  0.000000E+00  0.000000E+00  0.000000E+00  0.000000E+00  0.000000E+00  1.170207E+00  0.000000E+00  0.000000E+00  1.170207E+00                                                                                                                                                                                                                                                                                                                                                                                                                                                                                              
  1.185000E+03  1.250000E+02 -5.425000E+03  1.083832E-06  0.000000E+00  0.000000E+00  1.083832E-06  6.360282E-09  0.000000E+00  0.000000E+00  6.360282E-09  0.000000E+00  0.000000E+00  0.000000E+00  0.000000E+00  0.000000E+00  0.000000E+00  0.000000E+00  0.000000E+00  1.170206E+00  0.000000E+00  0.000000E+00  1.170206E+00                                                                                                                                                                                                                                                                                                                                                                                                                                                                                              
  1.435000E+03  1.250000E+02 -5.425000E+03  1.083831E-06  0.000000E+00  0.000000E+00  1.083831E-06  6.360279E-09  0.000000E+00  0.000000E+00  6.360279E-09  0.000000E+00  0.000000E+00  0.000000E+00  0.000000E+00  0.000000E+00  0.000000E+00  0.000000E+00  0.000000E+00  1.170205E+00  0.000000E+00  0.000000E+00  1.170205E+00                                                                                                                                                                                                                                                                                                                                                                                                                                                                                              
  1.250000E+02  1.250000E+02 -5.225000E+03  2.173777E-06  3.440922E-13 -2.712641E-15  2.173777E-06  1.269569E-08  2.011918E-15 -1.586090E-17  1.269569E-08  0.000000E+00  0.000000E+00  0.000000E+00  0.000000E+00  0.000000E+00  0.000000E+00  0.000000E+00  0.000000E+00  2.305781E+00  3.584974E-07 -2.826205E-09  2.305781E+00                                                                                                                                                                                                                                                                                                                                                                                                                                                                                              
  3.750000E+02  1.250000E+02 -5.225000E+03  2.173778E-06  7.960147E-13  4.879356E-15  2.173778E-06  1.269570E-08  4.654323E-15  2.852975E-17  1.269570E-08  0.000000E+00  0.000000E+00  0.000000E+00  0.000000E+00  0.000000E+00  0.000000E+00  0.000000E+00  0.000000E+00  2.305782E+00  8.293395E-07  5.083629E-09  2.305782E+00                                                                                                                                                                                                                                                                                                                                                                                                                                                                                              
  6.250000E+02  1.250000E+02 -5.225000E+03  2.173779E-06  5.007348E-13 -3.674777E-15  2.173779E-06  1.269571E-08  2.927812E-15 -2.148654E-17  1.269571E-08  0.000000E+00  0.000000E+00  0.000000E+00  0.000000E+00  0.000000E+00  0.000000E+00  0.000000E+00  0.000000E+00  2.305784E+00  5.216978E-07 -3.828620E-09  2.305784E+00                                                                                                                                                                                                                                                                                                                                                                                                                                                                                              
  7.600000E+02  1.250000E+02 -5.225000E+03  2.173779E-06  5.642733E-14 -2.259321E-15  2.173779E-06  1.269571E-08  3.299324E-16 -1.321032E-17  1.269571E-08  0.000000E+00  0.000000E+00  0.000000E+00  0.000000E+00  0.000000E+00  0.000000E+00  0.000000E+00  0.000000E+00  2.305784E+00  5.878964E-08 -2.353907E-09  2.305784E+00                                                                                                                                                                                                                                                                                                                                                                                                                                                                                              
  7.800000E+02  1.250000E+02 -5.225000E+03  2.173779E-06 -1.368667E-14 -1.499159E-15  2.173779E-06  1.269571E-08 -8.002638E-17 -8.765629E-18  1.269571E-08  0.000000E+00  0.000000E+00  0.000000E+00  0.000000E+00  0.000000E+00  0.000000E+00  0.000000E+00  0.000000E+00  2.305784E+00 -1.425965E-08 -1.561920E-09  2.305784E+00                                                                                                                                                                                                                                                                                                                                                                                                                                                                                              
  8.000000E+02  1.250000E+02 -5.225000E+03  2.173779E-06 -8.100466E-14 -1.073405E-15  2.173779E-06  1.269571E-08 -4.736369E-16 -6.276235E-18  1.269571E-08  0.000000E+00  0.000000E+00  0.000000E+00  0.000000E+00  0.000000E+00  0.000000E+00  0.000000E+00  0.000000E+00  2.305784E+00 -8.439589E-08 -1.118343E-09  2.305784E+00                                                                                                                                                                                                                                                                                                                                                                                                                                                                                              
  9.350000E+02  1.250000E+02 -5.225000E+03  2.173779E-06 -4.978514E-13  2.407288E-15  2.173779E-06  1.269571E-08 -2.910953E-15  1.407549E-17  1.269571E-08  0.000000E+00  0.000000E+00  0.000000E+00  0.000000E+00  0.000000E+00  0.000000E+00  0.000000E+00  0.000000E+00  2.305784E+00 -5.186938E-07  2.508068E-09  2.305784E+00                                                                                                                                                                                                                                                                                                                                                                                                                                                                                              
  1.185000E+03  1.250000E+02 -5.225000E+03  2.173778E-06 -7.852517E-13 -5.283789E-16  2.173778E-06  1.269570E-08 -4.591392E-15 -3.089448E-18  1.269570E-08  0.000000E+00  0.000000E+00  0.000000E+00  0.000000E+00  0.000000E+00  0.000000E+00  0.000000E+00  0.000000E+00  2.305782E+00 -8.181259E-07 -5.504992E-10  2.305782E+00                                                                                                                                                                                                                                                                                                                                                                                                                                                                                              
  1.435000E+03  1.250000E+02 -5.225000E+03  2.173777E-06 -3.471031E-13  4.053617E-15  2.173777E-06  1.269569E-08 -2.029523E-15  2.370163E-17  1.269569E-08  0.000000E+00  0.000000E+00  0.000000E+00  0.000000E+00  0.000000E+00  0.000000E+00  0.000000E+00  0.000000E+00  2.305781E+00 -3.616345E-07  4.223320E-09  2.305781E+00                                                                                                                                                                                                                                                                                                                                                                                                                                                                                              
  1.250000E+02  1.250000E+02 -4.975000E+03  2.190165E-06  1.005994E-12 -1.426132E-14  2.190165E-06  1.266599E-08  5.821617E-15 -8.252924E-17  1.266599E-08  0.000000E+00  0.000000E+00  0.000000E+00  0.000000E+00  0.000000E+00  0.000000E+00  0.000000E+00  0.000000E+00  2.228338E+00  9.991759E-07 -1.416466E-08  2.228338E+00                                                                                                                                                                                                                                                                                                                                                                                                                                                                                              
  3.750000E+02  1.250000E+02 -4.975000E+03  2.190167E-06  2.455203E-12 -4.961293E-15  2.190167E-06  1.266600E-08  1.420808E-14 -2.871065E-17  1.266600E-08  0.000000E+00  0.000000E+00  0.000000E+00  0.000000E+00  0.000000E+00  0.000000E+00  0.000000E+00  0.000000E+00  2.228340E+00  2.438562E-06 -4.927666E-09  2.228340E+00                                                                                                                                                                                                                                                                                                                                                                                                                                                                                              
  6.250000E+02  1.250000E+02 -4.975000E+03  2.190170E-06  1.665434E-12  1.631930E-15  2.190170E-06  1.266602E-08  9.637747E-15  9.443860E-18  1.266602E-08  0.000000E+00  0.000000E+00  0.000000E+00  0.000000E+00  0.000000E+00  0.000000E+00  0.000000E+00  0.000000E+00  2.228344E+00  1.654146E-06  1.620869E-09  2.228344E+00                                                                                                                                                                                                                                                                                                                                                                                                                                                                                              
  7.600000E+02  1.250000E+02 -4.975000E+03  2.190171E-06  2.918076E-13  5.585405E-15  2.190171E-06  1.266602E-08  1.688670E-15  3.232234E-17  1.266602E-08  0.000000E+00  0.000000E+00  0.000000E+00  0.000000E+00  0.000000E+00  0.000000E+00  0.000000E+00  0.000000E+00  2.228344E+00  2.898298E-07  5.547548E-09  2.228344E+00                                                                                                                                                                                                                                                                                                                                                                                                                                                                                              
  7.800000E+02  1.250000E+02 -4.975000E+03  2.190171E-06  7.724132E-15  6.350346E-15  2.190171E-06  1.266602E-08  4.469900E-17  3.674900E-17  1.266602E-08  0.000000E+00  0.000000E+00  0.000000E+00  0.000000E+00  0.000000E+00  0.000000E+00  0.000000E+00  0.000000E+00  2.228344E+00  7.671781E-09  6.307305E-09  2.228344E+00                                                                                                                                                                                                                                                                                                                                                                                                                                                                                              
  8.000000E+02  1.250000E+02 -4.975000E+03  2.190171E-06 -2.740083E-13  6.972502E-15  2.190171E-06  1.266602E-08 -1.585666E-15  4.034937E-17  1.266602E-08  0.000000E+00  0.000000E+00  0.000000E+00  0.000000E+00  0.000000E+00  0.000000E+00  0.000000E+00  0.000000E+00  2.228344E+00 -2.721511E-07  6.925244E-09  2.228344E+00                                                                                                                                                                                                                                                                                                                                                                                                                                                                                              
  9.350000E+02  1.250000E+02 -4.975000E+03  2.190170E-06 -1.652934E-12  1.003611E-14  2.190170E-06  1.266602E-08 -9.565412E-15  5.807824E-17  1.266602E-08  0.000000E+00  0.000000E+00  0.000000E+00  0.000000E+00  0.000000E+00  0.000000E+00  0.000000E+00  0.000000E+00  2.228344E+00 -1.641731E-06  9.968086E-09  2.228344E+00                                                                                                                                                                                                                                                                                                                                                                                                                                                                                              
  1.185000E+03  1.250000E+02 -4.975000E+03  2.190167E-06 -2.467867E-12 -9.406985E-15  2.190167E-06  1.266600E-08 -1.428137E-14 -5.443755E-17  1.266600E-08  0.000000E+00  0.000000E+00  0.000000E+00  0.000000E+00  0.000000E+00  0.000000E+00  0.000000E+00  0.000000E+00  2.228340E+00 -2.451140E-06 -9.343227E-09  2.228340E+00                                                                                                                                                                                                                                                                                                                                                                                                                                                                                              
  1.435000E+03  1.250000E+02 -4.975000E+03  2.190165E-06 -1.021083E-12  6.351263E-15  2.190165E-06  1.266599E-08 -5.908932E-15  3.675431E-17  1.266599E-08  0.000000E+00  0.000000E+00  0.000000E+00  0.000000E+00  0.000000E+00  0.000000E+00  0.000000E+00  0.000000E+00  2.228338E+00 -1.014162E-06  6.308216E-09  2.228338E+00                                                                                                                                                                                                                                                                                                                                                                                                                                                                                              
  1.250000E+02  1.250000E+02 -4.725000E+03  2.214063E-06  2.199413E-12 -6.720521E-15  2.214063E-06  1.268977E-08  1.260380E-14 -3.851214E-17  1.268977E-08  0.000000E+00  0.000000E+00  0.000000E+00  0.000000E+00  0.000000E+00  0.000000E+00  0.000000E+00  0.000000E+00  2.144623E+00  2.077021E-06 -6.346539E-09  2.144623E+00                                                                                                                                                                                                                                                                                                                                                                                                                                                                                              
  3.750000E+02  1.250000E+02 -4.725000E+03  2.214066E-06  6.302775E-12  1.749375E-15  2.214066E-06  1.268980E-08  3.611824E-14  1.002485E-17  1.268980E-08  0.000000E+00  0.000000E+00  0.000000E+00  0.000000E+00  0.000000E+00  0.000000E+00  0.000000E+00  0.000000E+00  2.144626E+00  5.952040E-06  1.652026E-09  2.144626E+00                                                                                                                                                                                                                                                                                                                                                                                                                                                                                              
  6.250000E+02  1.250000E+02 -4.725000E+03  2.214076E-06  5.338821E-12  6.008909E-15  2.214076E-06  1.268989E-08  3.059427E-14  3.443423E-17  1.268989E-08  0.000000E+00  0.000000E+00  0.000000E+00  0.000000E+00  0.000000E+00  0.000000E+00  0.000000E+00  0.000000E+00  2.144636E+00  5.041728E-06  5.674526E-09  2.144636E+00                                                                                                                                                                                                                                                                                                                                                                                                                                                                                              
  7.600000E+02  1.250000E+02 -4.725000E+03  2.214084E-06  1.661354E-12  8.603644E-15  2.214084E-06  1.268996E-08  9.520439E-15  4.930343E-17  1.268996E-08  0.000000E+00  0.000000E+00  0.000000E+00  0.000000E+00  0.000000E+00  0.000000E+00  0.000000E+00  0.000000E+00  2.144644E+00  1.568904E-06  8.124871E-09  2.144644E+00                                                                                                                                                                                                                                                                                                                                                                                                                                                                                              
  7.800000E+02  1.250000E+02 -4.725000E+03  2.214085E-06 -1.550345E-14  8.770584E-15  2.214085E-06  1.268996E-08 -8.884297E-17  5.026009E-17  1.268996E-08  0.000000E+00  0.000000E+00  0.000000E+00  0.000000E+00  0.000000E+00  0.000000E+00  0.000000E+00  0.000000E+00  2.144644E+00 -1.464072E-08  8.282521E-09  2.144644E+00                                                                                                                                                                                                                                                                                                                                                                                                                                                                                              
  8.000000E+02  1.250000E+02 -4.725000E+03  2.214084E-06 -1.685309E-12  9.876279E-15  2.214084E-06  1.268996E-08 -9.657713E-15  5.659631E-17  1.268996E-08  0.000000E+00  0.000000E+00  0.000000E+00  0.000000E+00  0.000000E+00  0.000000E+00  0.000000E+00  0.000000E+00  2.144644E+00 -1.591525E-06  9.326687E-09  2.144644E+00                                                                                                                                                                                                                                                                                                                                                                                                                                                                                              
  9.350000E+02  1.250000E+02 -4.725000E+03  2.214076E-06 -5.346108E-12  1.047449E-14  2.214076E-06  1.268989E-08 -3.063603E-14  6.002438E-17  1.268989E-08  0.000000E+00  0.000000E+00  0.000000E+00  0.000000E+00  0.000000E+00  0.000000E+00  0.000000E+00  0.000000E+00  2.144636E+00 -5.048609E-06  9.891610E-09  2.144636E+00                                                                                                                                                                                                                                                                                                                                                                                                                                                                                              
  1.185000E+03  1.250000E+02 -4.725000E+03  2.214066E-06 -6.306066E-12  1.256510E-14  2.214066E-06  1.268980E-08 -3.613710E-14  7.200470E-17  1.268980E-08  0.000000E+00  0.000000E+00  0.000000E+00  0.000000E+00  0.000000E+00  0.000000E+00  0.000000E+00  0.000000E+00  2.144626E+00 -5.955148E-06  1.186589E-08  2.144626E+00                                                                                                                                                                                                                                                                                                                                                                                                                                                                                              