Title="TOUGHREACT V3.30-OMP flowvector.tec: Liq & Gas Fluxes (kg/s/m^2), Pore Velocities (m/s), & Heat Fluxes (J/s/m2)"                                                                                                                                                                                                                                                                                                                                                                                                                                                                                                                                                                                                                                                                                                         
Variables= "X(m)"     "Y(m)"      "Z(m)"     "FluxLiq"   "FluxLiq_X"   "FluxLiq_Y"   "FluxLiq_Z"   "PorVelLiq"  "PorVelLiqX"  "PorVelLiqY"  "PorVelLiqZ"     "FluxGas"   "FluxGas_X"   "FluxGas_Y"   "FluxGas_Z"   "PorVelGas"  "PorVelGasX"  "PorVelGasY"  "PorVelGasZ"    "HeatFlux"  "HeatFlux_X"  "HeatFlux_Y"  "HeatFlux_Z"                                                                                                                                                                                                                                                                                                                                                                                                                                                                                                
Zone T= "5.00000000E+09 sec" I=     9 J=    10 K=    23 F=Point
  1.250000E+02  1.250000E+02 -5.425000E+03  8.947120E-08 -6.249992E-09  1.613592E-08 -8.778191E-08  5.166113E-10 -3.632663E-11  9.378821E-11 -5.067261E-10  0.000000E+00  0.000000E+00  0.000000E+00  0.000000E+00  0.000000E+00  0.000000E+00  0.000000E+00  0.000000E+00  9.344908E-02 -6.790315E-03  1.753067E-02 -9.153850E-02                                                                                                                                                                                                                                                                                                                                                                                                                                                                                              
  3.750000E+02  1.250000E+02 -5.425000E+03  8.935098E-08 -2.679653E-08  1.697513E-08 -8.353076E-08  5.162291E-10 -1.557426E-10  9.866472E-11 -4.821846E-10  0.000000E+00  0.000000E+00  0.000000E+00  0.000000E+00  0.000000E+00  0.000000E+00  0.000000E+00  0.000000E+00  9.367757E-02 -2.911349E-02  1.844266E-02 -8.710775E-02                                                                                                                                                                                                                                                                                                                                                                                                                                                                                              
  6.250000E+02  1.250000E+02 -5.425000E+03  1.030895E-07 -5.888110E-08  1.857835E-08 -8.255487E-08  5.965226E-10 -3.422023E-10  1.079772E-10 -4.765267E-10  0.000000E+00  0.000000E+00  0.000000E+00  0.000000E+00  0.000000E+00  0.000000E+00  0.000000E+00  0.000000E+00  1.091414E-01 -6.397254E-02  2.018480E-02 -8.609259E-02                                                                                                                                                                                                                                                                                                                                                                                                                                                                                              
  7.600000E+02  1.250000E+02 -5.425000E+03  1.181348E-07 -7.766378E-08  1.999664E-08 -8.674271E-08  6.840230E-10 -4.513499E-10  1.162133E-10 -5.006647E-10  0.000000E+00  0.000000E+00  0.000000E+00  0.000000E+00  0.000000E+00  0.000000E+00  0.000000E+00  0.000000E+00  1.255977E-01 -8.437941E-02  2.172576E-02 -9.045937E-02                                                                                                                                                                                                                                                                                                                                                                                                                                                                                              
  7.800000E+02  1.250000E+02 -5.425000E+03  1.199244E-07 -7.958393E-08  2.020737E-08 -8.740665E-08  6.944151E-10 -4.625034E-10  1.174369E-10 -5.044914E-10  0.000000E+00  0.000000E+00  0.000000E+00  0.000000E+00  0.000000E+00  0.000000E+00  0.000000E+00  0.000000E+00  1.275419E-01 -8.646562E-02  2.195472E-02 -9.115166E-02                                                                                                                                                                                                                                                                                                                                                                                                                                                                                              
  8.000000E+02  1.250000E+02 -5.425000E+03  1.216556E-07 -8.136024E-08  2.041781E-08 -8.811184E-08  7.044561E-10 -4.728101E-10  1.186588E-10 -5.085560E-10  0.000000E+00  0.000000E+00  0.000000E+00  0.000000E+00  0.000000E+00  0.000000E+00  0.000000E+00  0.000000E+00  1.294183E-01 -8.839555E-02  2.218336E-02 -9.188696E-02                                                                                                                                                                                                                                                                                                                                                                                                                                                                                              
  9.350000E+02  1.250000E+02 -5.425000E+03  1.287026E-07 -8.610439E-08  2.183003E-08 -9.313353E-08  7.452044E-10 -5.003324E-10  1.268577E-10 -5.374981E-10  0.000000E+00  0.000000E+00  0.000000E+00  0.000000E+00  0.000000E+00  0.000000E+00  0.000000E+00  0.000000E+00  1.369196E-01 -9.354988E-02  2.371770E-02 -9.712290E-02                                                                                                                                                                                                                                                                                                                                                                                                                                                                                              
  1.185000E+03  1.250000E+02 -5.425000E+03  1.315871E-07 -7.528549E-08  2.324913E-08 -1.053885E-07  7.611871E-10 -4.374234E-10  1.350862E-10 -6.081269E-10  0.000000E+00  0.000000E+00  0.000000E+00  0.000000E+00  0.000000E+00  0.000000E+00  0.000000E+00  0.000000E+00  1.393082E-01 -8.179538E-02  2.525948E-02 -1.099011E-01                                                                                                                                                                                                                                                                                                                                                                                                                                                                                              
  1.435000E+03  1.250000E+02 -5.425000E+03  1.210241E-07 -3.028663E-08  2.318342E-08 -1.148568E-07  6.987562E-10 -1.759612E-10  1.346922E-10 -6.626884E-10  0.000000E+00  0.000000E+00  0.000000E+00  0.000000E+00  0.000000E+00  0.000000E+00  0.000000E+00  0.000000E+00  1.267397E-01 -3.290547E-02  2.518806E-02 -1.197737E-01                                                                                                                                                                                                                                                                                                                                                                                                                                                                                              
  1.250000E+02  1.250000E+02 -5.225000E+03  3.366236E-07 -2.706087E-09  1.989591E-08 -3.360242E-07  1.923687E-09 -1.553029E-11  1.141844E-10 -1.920232E-09  0.000000E+00  0.000000E+00  0.000000E+00  0.000000E+00  0.000000E+00  0.000000E+00  0.000000E+00  0.000000E+00  3.389754E-01 -2.821969E-03  2.074735E-02 -3.383281E-01                                                                                                                                                                                                                                                                                                                                                                                                                                                                                              
  3.750000E+02  1.250000E+02 -5.225000E+03  3.164800E-07 -2.202635E-08  2.119002E-08 -3.150006E-07  1.808777E-09 -1.264049E-10  1.216117E-10 -1.800252E-09  0.000000E+00  0.000000E+00  0.000000E+00  0.000000E+00  0.000000E+00  0.000000E+00  0.000000E+00  0.000000E+00  3.188323E-01 -2.297017E-02  2.209743E-02 -3.172351E-01                                                                                                                                                                                                                                                                                                                                                                                                                                                                                              
  6.250000E+02  1.250000E+02 -5.225000E+03  3.148559E-07 -6.303570E-08  2.325430E-08 -3.076036E-07  1.799778E-09 -3.617310E-10  1.334526E-10 -1.757993E-09  0.000000E+00  0.000000E+00  0.000000E+00  0.000000E+00  0.000000E+00  0.000000E+00  0.000000E+00  0.000000E+00  3.176706E-01 -6.573671E-02  2.425082E-02 -3.098470E-01                                                                                                                                                                                                                                                                                                                                                                                                                                                                                              
  7.600000E+02  1.250000E+02 -5.225000E+03  3.382830E-07 -8.883996E-08  2.563372E-08 -3.254009E-07  1.933694E-09 -5.097939E-10  1.470972E-10 -1.859474E-09  0.000000E+00  0.000000E+00  0.000000E+00  0.000000E+00  0.000000E+00  0.000000E+00  0.000000E+00  0.000000E+00  3.416295E-01 -9.264643E-02  2.673205E-02 -3.277389E-01                                                                                                                                                                                                                                                                                                                                                                                                                                                                                              
  7.800000E+02  1.250000E+02 -5.225000E+03  3.417718E-07 -9.156802E-08  2.598868E-08 -3.282497E-07  1.953622E-09 -5.254406E-10  1.491324E-10 -1.875716E-09  0.000000E+00  0.000000E+00  0.000000E+00  0.000000E+00  0.000000E+00  0.000000E+00  0.000000E+00  0.000000E+00  3.451824E-01 -9.549127E-02  2.710218E-02 -3.306022E-01                                                                                                                                                                                                                                                                                                                                                                                                                                                                                              
  8.000000E+02  1.250000E+02 -5.225000E+03  3.454074E-07 -9.410689E-08  2.634404E-08 -3.312947E-07  1.974383E-09 -5.399868E-10  1.511699E-10 -1.893080E-09  0.000000E+00  0.000000E+00  0.000000E+00  0.000000E+00  0.000000E+00  0.000000E+00  0.000000E+00  0.000000E+00  3.488817E-01 -9.813840E-02  2.747274E-02 -3.336653E-01                                                                                                                                                                                                                                                                                                                                                                                                                                                                                              
  9.350000E+02  1.250000E+02 -5.225000E+03  3.684939E-07 -1.015091E-07  2.873053E-08 -3.530697E-07  2.106065E-09 -5.823921E-10  1.648511E-10 -2.017214E-09  0.000000E+00  0.000000E+00  0.000000E+00  0.000000E+00  0.000000E+00  0.000000E+00  0.000000E+00  0.000000E+00  3.721807E-01 -1.058563E-01  2.996120E-02 -3.555492E-01                                                                                                                                                                                                                                                                                                                                                                                                                                                                                              
  1.185000E+03  1.250000E+02 -5.225000E+03  4.138976E-07 -9.106812E-08  3.041087E-08 -4.026077E-07  2.364672E-09 -5.224249E-10  1.744635E-10 -2.299632E-09  0.000000E+00  0.000000E+00  0.000000E+00  0.000000E+00  0.000000E+00  0.000000E+00  0.000000E+00  0.000000E+00  4.175721E-01 -9.496719E-02  3.171303E-02 -4.053911E-01                                                                                                                                                                                                                                                                                                                                                                                                                                                                                              
  1.435000E+03  1.250000E+02 -5.225000E+03  4.437437E-07 -3.722245E-08  2.909513E-08 -4.412215E-07  2.534241E-09 -2.135165E-10  1.668958E-10 -2.519710E-09  0.000000E+00  0.000000E+00  0.000000E+00  0.000000E+00  0.000000E+00  0.000000E+00  0.000000E+00  0.000000E+00  4.469650E-01 -3.881591E-02  3.034066E-02 -4.442415E-01                                                                                                                                                                                                                                                                                                                                                                                                                                                                                              
  1.250000E+02  1.250000E+02 -4.975000E+03  6.940825E-07  1.421032E-08  3.647208E-08 -6.929779E-07  3.913124E-09  8.041384E-11  2.063904E-10 -3.906850E-09  0.000000E+00  0.000000E+00  0.000000E+00  0.000000E+00  0.000000E+00  0.000000E+00  0.000000E+00  0.000000E+00  6.644095E-01  1.412716E-02  3.625865E-02 -6.632690E-01                                                                                                                                                                                                                                                                                                                                                                                                                                                                                              
  3.750000E+02  1.250000E+02 -4.975000E+03  6.242766E-07  1.856363E-09  4.079680E-08 -6.229394E-07  3.520706E-09  1.050353E-11  2.308786E-10 -3.513112E-09  0.000000E+00  0.000000E+00  0.000000E+00  0.000000E+00  0.000000E+00  0.000000E+00  0.000000E+00  0.000000E+00  5.979551E-01  1.844255E-03  4.056018E-02 -5.965750E-01                                                                                                                                                                                                                                                                                                                                                                                                                                                                                              
  6.250000E+02  1.250000E+02 -4.975000E+03  5.915683E-07 -8.018447E-08  4.379459E-08 -5.844703E-07  3.336926E-09 -4.537210E-10  2.478405E-10 -3.296633E-09  0.000000E+00  0.000000E+00  0.000000E+00  0.000000E+00  0.000000E+00  0.000000E+00  0.000000E+00  0.000000E+00  5.671162E-01 -7.972159E-02  4.354272E-02 -5.597939E-01                                                                                                                                                                                                                                                                                                                                                                                                                                                                                              
  7.600000E+02  1.250000E+02 -4.975000E+03  6.491335E-07 -1.391479E-07  5.170974E-08 -6.319321E-07  3.661149E-09 -7.873382E-10  2.925995E-10 -3.563495E-09  0.000000E+00  0.000000E+00  0.000000E+00  0.000000E+00  0.000000E+00  0.000000E+00  0.000000E+00  0.000000E+00  6.229509E-01 -1.383437E-01  5.141103E-02 -6.052155E-01                                                                                                                                                                                                                                                                                                                                                                                                                                                                                              
  7.800000E+02  1.250000E+02 -4.975000E+03  6.589297E-07 -1.458963E-07  5.291780E-08 -6.403923E-07  3.716297E-09 -8.255026E-10  2.994298E-10 -3.611059E-09  0.000000E+00  0.000000E+00  0.000000E+00  0.000000E+00  0.000000E+00  0.000000E+00  0.000000E+00  0.000000E+00  6.324363E-01 -1.450533E-01  5.261184E-02 -6.133247E-01                                                                                                                                                                                                                                                                                                                                                                                                                                                                                              
  8.000000E+02  1.250000E+02 -4.975000E+03  6.701897E-07 -1.520970E-07  5.415067E-08 -6.504525E-07  3.779343E-09 -8.605270E-10  3.064004E-10 -3.667294E-09  0.000000E+00  0.000000E+00  0.000000E+00  0.000000E+00  0.000000E+00  0.000000E+00  0.000000E+00  0.000000E+00  6.428910E-01 -1.512160E-01  5.383791E-02 -6.225304E-01                                                                                                                                                                                                                                                                                                                                                                                                                                                                                              
  9.350000E+02  1.250000E+02 -4.975000E+03  7.391658E-07 -1.673524E-07  6.251548E-08 -7.172524E-07  4.167081E-09 -9.466490E-10  3.536835E-10 -4.042688E-09  0.000000E+00  0.000000E+00  0.000000E+00  0.000000E+00  0.000000E+00  0.000000E+00  0.000000E+00  0.000000E+00  7.090930E-01 -1.663794E-01  6.215234E-02 -6.864896E-01                                                                                                                                                                                                                                                                                                                                                                                                                                                                                              
  1.185000E+03  1.250000E+02 -4.975000E+03  8.483436E-07 -1.553322E-07  6.461086E-08 -8.314952E-07  4.780962E-09 -8.784711E-10  3.654346E-10 -4.685333E-09  0.000000E+00  0.000000E+00  0.000000E+00  0.000000E+00  0.000000E+00  0.000000E+00  0.000000E+00  0.000000E+00  8.143227E-01 -1.544288E-01  6.423496E-02 -7.969612E-01                                                                                                                                                                                                                                                                                                                                                                                                                                                                                              
  1.435000E+03  1.250000E+02 -4.975000E+03  9.248229E-07 -6.549781E-08  5.387799E-08 -9.209259E-07  5.210725E-09 -3.703741E-10  3.046659E-10 -5.188608E-09  0.000000E+00  0.000000E+00  0.000000E+00  0.000000E+00  0.000000E+00  0.000000E+00  0.000000E+00  0.000000E+00  8.881194E-01 -6.511712E-02  5.356483E-02 -8.841079E-01                                                                                                                                                                                                                                                                                                                                                                                                                                                                                              
  1.250000E+02  1.250000E+02 -4.725000E+03  1.226264E-06  6.730818E-08  7.957749E-08 -1.221826E-06  6.572969E-09  3.746020E-10  4.429116E-10 -6.547322E-09  0.000000E+00  0.000000E+00  0.000000E+00  0.000000E+00  0.000000E+00  0.000000E+00  0.000000E+00  0.000000E+00  6.552011E-01  6.303176E-02  7.452154E-02 -6.478904E-01                                                                                                                                                                                                                                                                                                                                                                                                                                                                                              
  3.750000E+02  1.250000E+02 -4.725000E+03  1.028229E-06  8.775259E-08  1.018287E-07 -1.019404E-06  5.509543E-09  4.883836E-10  5.669239E-10 -5.458493E-09  0.000000E+00  0.000000E+00  0.000000E+00  0.000000E+00  0.000000E+00  0.000000E+00  0.000000E+00  0.000000E+00  5.244304E-01  8.216941E-02  9.532009E-02 -5.091066E-01                                                                                                                                                                                                                                                                                                                                                                                                                                                                                              
  6.250000E+02  1.250000E+02 -4.725000E+03  8.545102E-07 -1.079945E-07  9.606703E-08 -8.421971E-07  4.588477E-09 -6.008891E-10  5.347048E-10 -4.517427E-09  0.000000E+00  0.000000E+00  0.000000E+00  0.000000E+00  0.000000E+00  0.000000E+00  0.000000E+00  0.000000E+00  4.379678E-01 -1.010262E-01  8.981743E-02 -4.165841E-01                                                                                                                                                                                                                                                                                                                                                                                                                                                                                              
  7.600000E+02  1.250000E+02 -4.725000E+03  9.000831E-07 -2.760982E-07  1.261099E-07 -8.473581E-07  4.861126E-09 -1.536332E-09  7.018780E-10 -4.558245E-09  0.000000E+00  0.000000E+00  0.000000E+00  0.000000E+00  0.000000E+00  0.000000E+00  0.000000E+00  0.000000E+00  5.262306E-01 -2.583344E-01  1.179849E-01 -4.430142E-01                                                                                                                                                                                                                                                                                                                                                                                                                                                                                              
  7.800000E+02  1.250000E+02 -4.725000E+03  9.111432E-07 -3.161990E-07  1.315303E-07 -8.443340E-07  4.928369E-09 -1.759392E-09  7.320420E-10 -4.545050E-09  0.000000E+00  0.000000E+00  0.000000E+00  0.000000E+00  0.000000E+00  0.000000E+00  0.000000E+00  0.000000E+00  5.494687E-01 -2.957366E-01  1.230781E-01 -4.464387E-01                                                                                                                                                                                                                                                                                                                                                                                                                                                                                              
  8.000000E+02  1.250000E+02 -4.725000E+03  1.201257E-06 -3.365084E-07  1.379322E-07 -1.144882E-06  6.452440E-09 -1.872073E-09  7.675760E-10 -6.127002E-09  0.000000E+00  0.000000E+00  0.000000E+00  0.000000E+00  0.000000E+00  0.000000E+00  0.000000E+00  0.000000E+00  6.813912E-01 -3.147903E-01  1.289513E-01 -5.904004E-01                                                                                                                                                                                                                                                                                                                                                                                                                                                                                              
  9.350000E+02  1.250000E+02 -4.725000E+03  1.337202E-06 -3.320559E-07  1.777544E-07 -1.283063E-06  7.194390E-09 -1.847098E-09  9.892354E-10 -6.882506E-09  0.000000E+00  0.000000E+00  0.000000E+00  0.000000E+00  0.000000E+00  0.000000E+00  0.000000E+00  0.000000E+00  7.940616E-01 -3.112364E-01  1.663840E-01 -7.113241E-01                                                                                                                                                                                                                                                                                                                                                                                                                                                                                              
  1.185000E+03  1.250000E+02 -4.725000E+03  1.507928E-06 -2.878630E-07  1.754597E-07 -1.469761E-06  8.147333E-09 -1.601481E-09  9.762920E-10 -7.928502E-09  0.000000E+00  0.000000E+00  0.000000E+00  0.000000E+00  0.000000E+00  0.000000E+00  0.000000E+00  0.000000E+00  9.795557E-01 -2.705181E-01  1.646864E-01 -9.269454E-01                                                                                                                                                                                                                                                                                                                                                                                                                                                                                              