Title="TOUGHREACT V3.30-OMP flowvector.tec: Liq & Gas Fluxes (kg/s/m^2), Pore Velocities (m/s), & Heat Fluxes (J/s/m2)"                                                                                                                                                                                                                                                                                                                                                                                                                                                                                                                                                                                                                                                                                                         
Variables= "X(m)"     "Y(m)"      "Z(m)"     "FluxLiq"   "FluxLiq_X"   "FluxLiq_Y"   "FluxLiq_Z"   "PorVelLiq"  "PorVelLiqX"  "PorVelLiqY"  "PorVelLiqZ"     "FluxGas"   "FluxGas_X"   "FluxGas_Y"   "FluxGas_Z"   "PorVelGas"  "PorVelGasX"  "PorVelGasY"  "PorVelGasZ"    "HeatFlux"  "HeatFlux_X"  "HeatFlux_Y"  "HeatFlux_Z"                                                                                                                                                                                                                                                                                                                                                                                                                                                                                                
Zone T= "3.15569000E+08 sec" I=     9 J=    10 K=    23 F=Point
  1.250000E+02  1.250000E+02 -5.425000E+03  3.102903E-07  7.509958E-09  5.144480E-09 -3.101567E-07  1.813067E-09  4.417846E-11  3.026316E-11 -1.812276E-09  0.000000E+00  0.000000E+00  0.000000E+00  0.000000E+00  0.000000E+00  0.000000E+00  0.000000E+00  0.000000E+00  3.230725E-01  8.113312E-03  5.557791E-03 -3.229228E-01                                                                                                                                                                                                                                                                                                                                                                                                                                                                                              
  3.750000E+02  1.250000E+02 -5.425000E+03  3.054017E-07  1.356104E-08  7.475389E-09 -3.050089E-07  1.784579E-09  7.977558E-11  4.397602E-11 -1.782252E-09  0.000000E+00  0.000000E+00  0.000000E+00  0.000000E+00  0.000000E+00  0.000000E+00  0.000000E+00  0.000000E+00  3.180021E-01  1.465052E-02  8.075945E-03 -3.175618E-01                                                                                                                                                                                                                                                                                                                                                                                                                                                                                              
  6.250000E+02  1.250000E+02 -5.425000E+03  2.981510E-07 -2.516999E-09  1.004813E-08 -2.979710E-07  1.742249E-09 -1.480712E-11  5.911194E-11 -1.741183E-09  0.000000E+00  0.000000E+00  0.000000E+00  0.000000E+00  0.000000E+00  0.000000E+00  0.000000E+00  0.000000E+00  3.104351E-01 -2.719207E-03  1.085536E-02 -3.102333E-01                                                                                                                                                                                                                                                                                                                                                                                                                                                                                              
  7.600000E+02  1.250000E+02 -5.425000E+03  3.015446E-07 -1.793580E-08  8.751483E-09 -3.008835E-07  1.762085E-09 -1.055125E-10  5.148323E-11 -1.758169E-09  0.000000E+00  0.000000E+00  0.000000E+00  0.000000E+00  0.000000E+00  0.000000E+00  0.000000E+00  0.000000E+00  3.140074E-01 -1.937673E-02  9.454556E-03 -3.132663E-01                                                                                                                                                                                                                                                                                                                                                                                                                                                                                              
  7.800000E+02  1.250000E+02 -5.425000E+03  3.021110E-07 -1.947397E-08  8.539597E-09 -3.013618E-07  1.765396E-09 -1.145608E-10  5.023664E-11 -1.760959E-09  0.000000E+00  0.000000E+00  0.000000E+00  0.000000E+00  0.000000E+00  0.000000E+00  0.000000E+00  0.000000E+00  3.146043E-01 -2.103847E-02  9.225650E-03 -3.137645E-01                                                                                                                                                                                                                                                                                                                                                                                                                                                                                              
  8.000000E+02  1.250000E+02 -5.425000E+03  3.027170E-07 -2.088436E-08  8.309914E-09 -3.018814E-07  1.768938E-09 -1.228568E-10  4.888535E-11 -1.763989E-09  0.000000E+00  0.000000E+00  0.000000E+00  0.000000E+00  0.000000E+00  0.000000E+00  0.000000E+00  0.000000E+00  3.152422E-01 -2.256219E-02  8.977517E-03 -3.143056E-01                                                                                                                                                                                                                                                                                                                                                                                                                                                                                              
  9.350000E+02  1.250000E+02 -5.425000E+03  3.066352E-07 -2.393958E-08  6.654056E-09 -3.056269E-07  1.791805E-09 -1.408262E-10  3.914367E-11 -1.785833E-09  0.000000E+00  0.000000E+00  0.000000E+00  0.000000E+00  0.000000E+00  0.000000E+00  0.000000E+00  0.000000E+00  3.193363E-01 -2.586297E-02  7.188646E-03 -3.182061E-01                                                                                                                                                                                                                                                                                                                                                                                                                                                                                              
  1.185000E+03  1.250000E+02 -5.425000E+03  3.119514E-07 -2.091659E-08  3.589957E-09 -3.112287E-07  1.822760E-09 -1.230404E-10  2.111779E-11 -1.818480E-09  0.000000E+00  0.000000E+00  0.000000E+00  0.000000E+00  0.000000E+00  0.000000E+00  0.000000E+00  0.000000E+00  3.248508E-01 -2.259718E-02  3.878395E-03 -3.240407E-01                                                                                                                                                                                                                                                                                                                                                                                                                                                                                              
  1.435000E+03  1.250000E+02 -5.425000E+03  3.135882E-07 -7.755124E-09  2.071528E-09 -3.134854E-07  1.832228E-09 -4.561831E-11  1.218542E-11 -1.831619E-09  0.000000E+00  0.000000E+00  0.000000E+00  0.000000E+00  0.000000E+00  0.000000E+00  0.000000E+00  0.000000E+00  3.265068E-01 -8.378240E-03  2.237973E-03 -3.263916E-01                                                                                                                                                                                                                                                                                                                                                                                                                                                                                              
  1.250000E+02  1.250000E+02 -5.225000E+03  1.167674E-06  1.149866E-08  6.744147E-09 -1.167598E-06  6.749329E-09  6.683585E-11  3.920025E-11 -6.748884E-09  0.000000E+00  0.000000E+00  0.000000E+00  0.000000E+00  0.000000E+00  0.000000E+00  0.000000E+00  0.000000E+00  1.174443E+00  1.197194E-02  7.021737E-03 -1.174361E+00                                                                                                                                                                                                                                                                                                                                                                                                                                                                                              
  3.750000E+02  1.250000E+02 -5.225000E+03  1.148069E-06  2.308644E-08  1.152837E-08 -1.147779E-06  6.636429E-09  1.341919E-10  6.701070E-11 -6.634734E-09  0.000000E+00  0.000000E+00  0.000000E+00  0.000000E+00  0.000000E+00  0.000000E+00  0.000000E+00  0.000000E+00  1.154734E+00  2.403663E-02  1.200283E-02 -1.154422E+00                                                                                                                                                                                                                                                                                                                                                                                                                                                                                              
  6.250000E+02  1.250000E+02 -5.225000E+03  1.114000E-06 -1.145317E-09  1.837158E-08 -1.113848E-06  6.440193E-09 -6.658270E-12  1.067919E-10 -6.439304E-09  0.000000E+00  0.000000E+00  0.000000E+00  0.000000E+00  0.000000E+00  0.000000E+00  0.000000E+00  0.000000E+00  1.120541E+00 -1.192443E-03  1.912762E-02 -1.120377E+00                                                                                                                                                                                                                                                                                                                                                                                                                                                                                              
  7.600000E+02  1.250000E+02 -5.225000E+03  1.127655E-06 -2.672054E-08  1.535020E-08 -1.127234E-06  6.518842E-09 -1.553195E-10  8.922712E-11 -6.516380E-09  0.000000E+00  0.000000E+00  0.000000E+00  0.000000E+00  0.000000E+00  0.000000E+00  0.000000E+00  0.000000E+00  1.134270E+00 -2.782023E-02  1.598193E-02 -1.133816E+00                                                                                                                                                                                                                                                                                                                                                                                                                                                                                              
  7.800000E+02  1.250000E+02 -5.225000E+03  1.129923E-06 -2.911392E-08  1.485431E-08 -1.129450E-06  6.531904E-09 -1.692309E-10  8.634438E-11 -6.529140E-09  0.000000E+00  0.000000E+00  0.000000E+00  0.000000E+00  0.000000E+00  0.000000E+00  0.000000E+00  0.000000E+00  1.136550E+00 -3.031212E-02  1.546565E-02 -1.136041E+00                                                                                                                                                                                                                                                                                                                                                                                                                                                                                              
  8.000000E+02  1.250000E+02 -5.225000E+03  1.132393E-06 -3.126554E-08  1.431562E-08 -1.131871E-06  6.546129E-09 -1.817352E-10  8.321281E-11 -6.543076E-09  0.000000E+00  0.000000E+00  0.000000E+00  0.000000E+00  0.000000E+00  0.000000E+00  0.000000E+00  0.000000E+00  1.139034E+00 -3.255235E-02  1.490479E-02 -1.138471E+00                                                                                                                                                                                                                                                                                                                                                                                                                                                                                              
  9.350000E+02  1.250000E+02 -5.225000E+03  1.149852E-06 -3.354186E-08  1.043244E-08 -1.149315E-06  6.646642E-09 -1.949600E-10  6.063936E-11 -6.643505E-09  0.000000E+00  0.000000E+00  0.000000E+00  0.000000E+00  0.000000E+00  0.000000E+00  0.000000E+00  0.000000E+00  1.156559E+00 -3.492253E-02  1.086182E-02 -1.155981E+00                                                                                                                                                                                                                                                                                                                                                                                                                                                                                              
  1.185000E+03  1.250000E+02 -5.225000E+03  1.170106E-06 -2.681794E-08  4.797136E-09 -1.169788E-06  6.763205E-09 -1.558726E-10  2.788233E-11 -6.761351E-09  0.000000E+00  0.000000E+00  0.000000E+00  0.000000E+00  0.000000E+00  0.000000E+00  0.000000E+00  0.000000E+00  1.176937E+00 -2.792196E-02  4.994613E-03 -1.176595E+00                                                                                                                                                                                                                                                                                                                                                                                                                                                                                              
  1.435000E+03  1.250000E+02 -5.225000E+03  1.176792E-06 -9.415133E-09  2.432724E-09 -1.176752E-06  6.801637E-09 -5.472212E-11  1.413932E-11 -6.801402E-09  0.000000E+00  0.000000E+00  0.000000E+00  0.000000E+00  0.000000E+00  0.000000E+00  0.000000E+00  0.000000E+00  1.183670E+00 -9.802753E-03  2.532879E-03 -1.183627E+00                                                                                                                                                                                                                                                                                                                                                                                                                                                                                              
  1.250000E+02  1.250000E+02 -4.975000E+03  2.325760E-06  2.594903E-08  1.200989E-08 -2.325585E-06  1.324529E-08  1.484444E-10  6.870369E-11 -1.324428E-08  0.000000E+00  0.000000E+00  0.000000E+00  0.000000E+00  0.000000E+00  0.000000E+00  0.000000E+00  0.000000E+00  2.239677E+00  2.576736E-02  1.192581E-02 -2.239497E+00                                                                                                                                                                                                                                                                                                                                                                                                                                                                                              
  3.750000E+02  1.250000E+02 -4.975000E+03  2.294998E-06  6.428554E-08  2.945574E-08 -2.293908E-06  1.307111E-08  3.677697E-10  1.685175E-10 -1.306485E-08  0.000000E+00  0.000000E+00  0.000000E+00  0.000000E+00  0.000000E+00  0.000000E+00  0.000000E+00  0.000000E+00  2.209870E+00  6.383501E-02  2.924917E-02 -2.208754E+00                                                                                                                                                                                                                                                                                                                                                                                                                                                                                              
  6.250000E+02  1.250000E+02 -4.975000E+03  2.188950E-06  6.431361E-09  6.711202E-08 -2.187912E-06  1.247053E-08  3.678414E-11  3.839979E-10 -1.246456E-08  0.000000E+00  0.000000E+00  0.000000E+00  0.000000E+00  0.000000E+00  0.000000E+00  0.000000E+00  0.000000E+00  2.107255E+00  6.386488E-03  6.664045E-02 -2.106191E+00                                                                                                                                                                                                                                                                                                                                                                                                                                                                                              
  7.600000E+02  1.250000E+02 -4.975000E+03  2.225177E-06 -6.737293E-08  5.246796E-08 -2.223538E-06  1.267554E-08 -3.854631E-10  3.001920E-10 -1.266612E-08  0.000000E+00  0.000000E+00  0.000000E+00  0.000000E+00  0.000000E+00  0.000000E+00  0.000000E+00  0.000000E+00  2.142092E+00 -6.689999E-02  5.209962E-02 -2.140413E+00                                                                                                                                                                                                                                                                                                                                                                                                                                                                                              
  7.800000E+02  1.250000E+02 -4.975000E+03  2.232018E-06 -7.409237E-08  5.000902E-08 -2.230227E-06  1.271426E-08 -4.239028E-10  2.861208E-10 -1.270397E-08  0.000000E+00  0.000000E+00  0.000000E+00  0.000000E+00  0.000000E+00  0.000000E+00  0.000000E+00  0.000000E+00  2.148686E+00 -7.357236E-02  4.965800E-02 -2.146851E+00                                                                                                                                                                                                                                                                                                                                                                                                                                                                                              
  8.000000E+02  1.250000E+02 -4.975000E+03  2.240749E-06 -7.985351E-08  4.729023E-08 -2.238826E-06  1.276414E-08 -4.568482E-10  2.705629E-10 -1.275309E-08  0.000000E+00  0.000000E+00  0.000000E+00  0.000000E+00  0.000000E+00  0.000000E+00  0.000000E+00  0.000000E+00  2.157710E+00 -7.929347E-02  4.695838E-02 -2.155741E+00                                                                                                                                                                                                                                                                                                                                                                                                                                                                                              
  9.350000E+02  1.250000E+02 -4.975000E+03  2.294347E-06 -7.312242E-08  2.741604E-08 -2.293018E-06  1.306733E-08 -4.183114E-10  1.568451E-10 -1.305969E-08  0.000000E+00  0.000000E+00  0.000000E+00  0.000000E+00  0.000000E+00  0.000000E+00  0.000000E+00  0.000000E+00  2.209334E+00 -7.261036E-02  2.722387E-02 -2.207973E+00                                                                                                                                                                                                                                                                                                                                                                                                                                                                                              
  1.185000E+03  1.250000E+02 -4.975000E+03  2.322415E-06 -4.578820E-08  8.957759E-09 -2.321947E-06  1.322612E-08 -2.619241E-10  5.124180E-11 -1.322343E-08  0.000000E+00  0.000000E+00  0.000000E+00  0.000000E+00  0.000000E+00  0.000000E+00  0.000000E+00  0.000000E+00  2.236604E+00 -4.546804E-02  8.895106E-03 -2.236124E+00                                                                                                                                                                                                                                                                                                                                                                                                                                                                                              
  1.435000E+03  1.250000E+02 -4.975000E+03  2.326204E-06 -1.389470E-08  3.372510E-09 -2.326160E-06  1.324749E-08 -7.947997E-11  1.929126E-11 -1.324724E-08  0.000000E+00  0.000000E+00  0.000000E+00  0.000000E+00  0.000000E+00  0.000000E+00  0.000000E+00  0.000000E+00  2.240394E+00 -1.379761E-02  3.348945E-03 -2.240349E+00                                                                                                                                                                                                                                                                                                                                                                                                                                                                                              
  1.250000E+02  1.250000E+02 -4.725000E+03  3.576600E-06  4.224432E-08  1.539826E-08 -3.576317E-06  2.007522E-08  2.375480E-10  8.658725E-11 -2.007362E-08  0.000000E+00  0.000000E+00  0.000000E+00  0.000000E+00  0.000000E+00  0.000000E+00  0.000000E+00  0.000000E+00  3.312255E+00  3.993997E-02  1.455831E-02 -3.311983E+00                                                                                                                                                                                                                                                                                                                                                                                                                                                                                              
  3.750000E+02  1.250000E+02 -4.725000E+03  3.624648E-06  1.584942E-07  6.984900E-08 -3.620507E-06  2.032131E-08  8.912677E-10  3.928104E-10 -2.029796E-08  0.000000E+00  0.000000E+00  0.000000E+00  0.000000E+00  0.000000E+00  0.000000E+00  0.000000E+00  0.000000E+00  3.325085E+00  1.498417E-01  6.603467E-02 -3.321051E+00                                                                                                                                                                                                                                                                                                                                                                                                                                                                                              
  6.250000E+02  1.250000E+02 -4.725000E+03  3.433527E-06  3.846912E-08  2.890800E-07 -3.421120E-06  1.902280E-08  2.162816E-10  1.625762E-09 -1.895197E-08  0.000000E+00  0.000000E+00  0.000000E+00  0.000000E+00  0.000000E+00  0.000000E+00  0.000000E+00  0.000000E+00  2.799408E+00  3.642548E-02  2.730698E-01 -2.785820E+00                                                                                                                                                                                                                                                                                                                                                                                                                                                                                              
  7.600000E+02  1.250000E+02 -4.725000E+03  3.379158E-06 -1.742656E-07  2.185734E-07 -3.367576E-06  1.872358E-08 -9.800531E-10  1.229101E-09 -1.865747E-08  0.000000E+00  0.000000E+00  0.000000E+00  0.000000E+00  0.000000E+00  0.000000E+00  0.000000E+00  0.000000E+00  2.754511E+00 -1.646237E-01  2.064771E-01 -2.741823E+00                                                                                                                                                                                                                                                                                                                                                                                                                                                                                              
  7.800000E+02  1.250000E+02 -4.725000E+03  3.357165E-06 -2.134417E-07  2.053822E-07 -3.344072E-06  1.859643E-08 -1.200387E-09  1.154915E-09 -1.852167E-08  0.000000E+00  0.000000E+00  0.000000E+00  0.000000E+00  0.000000E+00  0.000000E+00  0.000000E+00  0.000000E+00  2.726146E+00 -2.016904E-01  1.940209E-01 -2.711743E+00                                                                                                                                                                                                                                                                                                                                                                                                                                                                                              
  8.000000E+02  1.250000E+02 -4.725000E+03  3.615969E-06 -2.321073E-07  1.901834E-07 -3.603497E-06  2.019505E-08 -1.305337E-09  1.069514E-09 -2.012442E-08  0.000000E+00  0.000000E+00  0.000000E+00  0.000000E+00  0.000000E+00  0.000000E+00  0.000000E+00  0.000000E+00  3.206531E+00 -2.194064E-01  1.797537E-01 -3.193961E+00                                                                                                                                                                                                                                                                                                                                                                                                                                                                                              
  9.350000E+02  1.250000E+02 -4.725000E+03  3.615027E-06 -1.601941E-07  6.710886E-08 -3.610853E-06  2.026939E-08 -9.008495E-10  3.773984E-10 -2.024585E-08  0.000000E+00  0.000000E+00  0.000000E+00  0.000000E+00  0.000000E+00  0.000000E+00  0.000000E+00  0.000000E+00  3.319126E+00 -1.514503E-01  6.344483E-02 -3.315061E+00                                                                                                                                                                                                                                                                                                                                                                                                                                                                                              
  1.185000E+03  1.250000E+02 -4.725000E+03  3.556745E-06 -5.801396E-08  1.240781E-08 -3.556250E-06  1.996383E-08 -3.262141E-10  6.976981E-11 -1.996104E-08  0.000000E+00  0.000000E+00  0.000000E+00  0.000000E+00  0.000000E+00  0.000000E+00  0.000000E+00  0.000000E+00  3.293998E+00 -5.484980E-02  1.173105E-02 -3.293520E+00                                                                                                                                                                                                                                                                                                                                                                                                                                                                                              